 --invoking executable--
/home/eric/opt/apps/cfour/2.00beta-binary/bin/xjoda


   *************************************************************************
         <<<     CCCCCC     CCCCCC   |||     CCCCCC     CCCCCC   >>>
       <<<      CCC        CCC       |||    CCC        CCC         >>>
      <<<      CCC        CCC        |||   CCC        CCC            >>>
    <<<        CCC        CCC        |||   CCC        CCC              >>>
      <<<      CCC        CCC        |||   CCC        CCC            >>>
       <<<      CCC        CCC       |||    CCC        CCC         >>>
         <<<     CCCCCC     CCCCCC   |||     CCCCCC     CCCCCC   >>>
   *************************************************************************

     ****************************************************************
     * CFOUR Coupled-Cluster techniques for Computational Chemistry *
     ****************************************************************
 

   Department of Chemistry                Institut fuer Physikalische Chemie
   University of Texas at Austin          Universitaet Mainz
   Austin, TX  78712, USA                 D-55099 Mainz, Germany
 
                       Version 2.00beta
 
                     copper                                            
                     Thu Feb  4 12:14:19 EST 2016                      
                     integer*8 version is running
 
********************************************************************************
*                          Input from ZMAT file                                *
********************************************************************************
Comment line                                                                    
C         -4.17279        2.71785       -0.10705                                
N         -4.61074        1.36006        0.11435                                
O         -3.39764        1.66807       -0.47929                                
S         -3.54968        3.49993        1.40731                                
H         -4.65853        3.25487       -0.95033                                
H         -5.24440        1.07756       -0.66755                                
H         -4.78235        3.34711        2.06997                                
                                                                                
*CFOUR(CALC=HF,BASIS=STO-3G,SPHERICAL=OFF,COORD=CARTESIAN,SCF_CONV=10,CONV=8)   
                                                                                
********************************************************************************
    -------------------------------------------------------------------
                    CFOUR Control Parameters 
    -------------------------------------------------------------------
        External           Internal           Value            Units
          Name               Name
    -------------------------------------------------------------------
       ABCDTYPE             IABCDT         STANDARD     [  0]   ***   
       ANHARMONIC           IANHAR         OFF          [  0]   ***   
       ANH_ALGORIT          IANALG         STANDARD     [  0]   ***   
       ANH_DERIVAT          IANDER         SECOND       [  1]   ***   
       ANH_STEPSIZ          ICUBST             50000          x 10-6  
       ANH_SYMMETR          IANHSM         ABELIAN      [  0]   ***   
       AO_LADDERS           IAOLAD         SINGLEPASS   [  1]   ***   
       BASIS                IBASIS         STO-3G       [  2]   ***   
       BREIT                IBREIT         OFF          [  0]   ***   
       BRUCK_CONV           IBRTOL          10D-  4             ***   
       BRUECKNER            IBRKNR             OFF      [  0]   ***   
       BUFFERSIZE           IBUFFS            600               ***   
       CACHE_RECS           ICHREC             10               ***   
       CALCLEVEL            ICLLVL           SCF        [  0]   ***   
       CCORBOPT             ICCORB             OFF      [  0] x 0.01  
       CC_CONV              ICCCNV          10D-  7             ***   
       CC_EXPORDER          ICCEOR              0               ***   
       CC_EXTRAPOL          ICCEXT             DIIS     [  1]   ***   
       CC_MAXCYC            ICCCYC              0              cycles 
       CC_PROGRAM           ICCPRO         VCC          [  0]   ***   
       CHARGE               ICHRGE              0               ***   
       CHOLESKY             ICHOLE         OFF          [  0]   ***   
       CIS_CONV             ICISTL              5               ***   
       COMM_SIZE            IPSIZE            ***               ***   
       CONSTANT             ICONST         OLD          [  1]   ***   
       CONTINUUM            ICONTU         NONE         [  0]   ***   
       CONTRACTION          ICNTYP          GENERAL     [  1]   ***   
       COORDINATES          ICOORD         CARTESIAN    [  1]   ***   
       CPHF_CONVER          ICPHFT          10D- 16             ***   
       CPHF_MAXCYC          ICPHFC             64              cycles 
       CUBIC                ICUBIC         OFF          [  0]   ***   
       CURVILINEAR          ICURVY            OFF       [  0]   ***   
       DBOC                 IDBOC          OFF          [  0]   ***   
       DCT                  IDCT           OFF          [  0]   ***   
       DERIV_LEV            IDRLVL            ZERO      [  0]   ***   
       DIAG_MRCC            IEOMST          10D-  0             ***   
       DIFF_TYPE            IDIFTY         RELAXED      [  0]   ***   
       DIRECT               IDIRCT         OFF          [  0]   ***   
       DROPMO               IDRPMO      NONE         
       ECP                  IECP           OFF          [  0]   ***   
       EIGENVECTOR          IVEC                1               ***   
       EL_ANHARM            IELANH         OFF          [  0]   ***   
       EOMFOLLOW            IEOMSR         ENERGY       [  0]   ***   
       EOM_MRCC             IMRCCE         NEW          [  1]   ***   
       EOM_NONIT            EOMNON         OFF          [  0]   ***   
       EOM_NSING            IEOMSI          10D-  0             ***   
       EOM_NSTATES          IMRCCD         DAVIDSON     [  0]   ***   
       EOM_NTRIP            IEOMTR          10D-  0             ***   
       EOM_ORDER            IEXORD         ENERGY       [  0]   ***   
       ESTATE_CONV          IEXTOL          10D-  5             ***   
       ESTATE_DIAG          IEXDIG         ITERATIVE    [  0]   ***   
       ESTATE_LOCK          IESLOC         ON           [  1]   ***   
       ESTATE_MAXC          IEXMXC             20               ***   
       ESTATE_PROP          IEXPRP         OFF          [  0]   ***   
       EVAL_HESS            IRECAL              0            # of cyc.
       EXCITATION           IEXCIT              0               ***   
       EXCITE               IEXCIT         NONE         [  0]   ***   
       FCGRADNEW            IFCGNW         OFF          [  0]   ***   
       FC_FIELD             IFINFC              0             x 10-6  
       FD_CALTYPE           IFDCAL         GRADONLY     [  0]   ***   
       FD_PROJECT           IFDPRJ         OFF          [  1]   ***   
       FD_STEPSIZE          IDISFD              0            10-4 bohr
       FD_USEGROUP          IFDGRP         FULL         [  0]   ***   
       FILE_RECSIZ          IFLREC              4096           words  
       FINITE_PERT          IFIPER              0             x 10-6  
       FIXGEOM              IFIXGM         OFF          [  0]   ***   
       FOCK                 IFOCK          AO           [  1]   ***   
       FREQ_ALGORI          IVIALG         STANDARD     [  0]   ***   
       FROZEN_CORE          IFROCO         OFF          [  0]   ***   
       FROZEN_VIRT          IFROVI         OFF          [  0]   ***   
       GAMMA_ABCD           IGABCD         STORE        [  0]   ***   
       GAMMA_ABCI           IGABCI         STORE        [  0]   ***   
       GENBAS_1             IGNBS1              0               ***   
       GENBAS_2             IGNBS2              0               ***   
       GENBAS_3             IGNBS3              0               ***   
       GENBAS_4             IGNBS4              0               ***   
       GEO_CONV             ICONTL              8              H/bohr 
       GEO_MAXCYC           IOPTCY             50               ***   
       GEO_MAXSTEP          IMXSTP            300            millibohr
       GEO_METHOD           INR            SINGLE_POINT [  5]   ***   
       GIAO                 IGIAO          OFF          [  1]   ***   
       GIMIC                IGIMIC         OFF          [  0]   ***   
       GRID                 IGRID          OFF          [  0]   ***   
       GRID_ALGO            IGALGO         SERIAL       [  0]   ***   
       GUESS                IGUESS            MOREAD    [  0]   ***   
       HBAR                 IHBAR              OFF      [  0]   ***   
       HESS_TYPE            IHESTP         SCF          [  0]   ***   
       HF2_FILE             IHF2Fl         USE          [  1]   ***   
       HFSTABILITY          ISTABL         OFF          [  0]   ***   
       INCORE               INCORE             OFF      [  0]   ***   
       INPUT_MRCC           IMRCC          ON           [  1]   ***   
       INTEGRALS            INTTYP             VMOL     [  1]   ***   
       JODA_PRINT           IJPRNT              0               ***   
       LINDEP_TOL           ILINDP              8               ***   
       LINEQ_CONV           IZTACN          10D-  7           cycles  
       LINEQ_EXPOR          ILMAXD              5               ***   
       LINEQ_MAXCY          ILMAXC             50               ***   
       LINEQ_TYPE           ILTYPE         DIIS         [  1]   ***   
       LOCK_ORBOCC          ILOCOC             OFF      [  0]   ***   
       MEMORY_SIZE          IMEMSZ         100000000           words  
       MEM_UNIT             IMEMU          INTEGERWORDS [  0]   ***   
       MRCC                 IMRCCC         OFF          [  0]   ***   
       MULTIPLICTY          IMULTP              1               ***   
       NEGEVAL              IDIE             ABORT      [  0]   ***   
       NEWNORM              INEWNO         OFF          [  0]   ***   
       NON-HF               INONHF             OFF      [  0]   ***   
       NTOP_TAMP            ITOPT2             15               ***   
       NUC_MODEL            INUCMO         POINT        [  0]   ***   
       OCCUPATION           IOCCU   ESTIMATED BY SCF 
       OPEN-SHELL           IOPEN          SPIN-ORBITAL [  0]   ***   
       ORBITALS             IORBTP           STANDARD   [  0]   ***   
       PARALLEL             IPARAL         ON           [  1]   ***   
       PARA_INT             IPINTS         ON           [  1]   ***   
       PARA_PRINT           IPPRIN              0               ***   
       PERT_ORB             IPTORB         STANDARD     [  0]   ***   
       POINTS               IGRDFD              0               ***   
       PRINT                IPRNT               0               ***   
       PROPS                IPROPS             OFF      [  0]   ***   
       PROP_INTEGR          IINTYP         INTERNAL     [  0]   ***   
       PSI                  IPSI           OFF          [  0]   ***   
       QUARTIC              IQUART         OFF          [  0]   ***   
       RAMAN_INT            IRAMIN         OFF          [  0]   ***   
       RAMAN_ORB            IRAMRE         UNRELAXED    [  0]   ***   
       RDO                  IRDOFM             OFF      [  0]   ***   
       REFERENCE            IREFNC             RHF      [  0]   ***   
       RELATIVIST           IRELAT         OFF          [  0]   ***   
       RELAX_DENS           IRDENS             OFF      [  0]   ***   
       RESET_FLAGS          IRESET             OFF      [  0]   ***   
       RESTART_CC           ICCRES         OFF          [  0]   ***   
       ROT_EVEC             ROTVEC              0               ***   
       SAVE_INTS            ISVINT             OFF      [  0]   ***   
       SCALE_ON             ISTCRT              0               ***   
       SCF_CONV             ISCFCV          10D- 10             ***   
       SCF_DAMPING          IDAMP               0             x 10-3  
       SCF_EXPORDE          IRPPOR              6               ***   
       SCF_EXPSTAR          IRPPLS              8               ***   
       SCF_EXTRAPO          IRPP                ON      [  1]   ***   
       SCF_MAXCYC           ISCFCY            150              cycles 
       SCF_NOSTOP           ISCFST         OFF          [  0]   ***   
       SCF_PRINT            ISCFPR              0               ***   
       SD_FIELD             IFINSD              0             x 10-6  
       SEQUENCE             ISEQUE         OFF          [  0]   ***   
       SOPERT               IPERSO         OFF          [  0]   ***   
       SPHERICAL            IDFGHI             OFF      [  0]   ***   
       SPINORBIT            ISOCAL         OFF          [  0]   ***   
       SPINROTATIO          ISRCON         OFF          [  0]   ***   
       SPIN_FLIP            ISPFLP         OFF          [  0]   ***   
       SPIN_ORBIT           ISPORB         OFF          [  0]   ***   
       SPIN_SCAL            ISCSMP         OFF          [  0]   ***   
       SUBGROUP             ISUBGP         DEFAULT      [  0]   ***   
       SUBGRPAXIS           ISBXYZ         X            [  0]   ***   
       SYMMETRY             ISYM             ON         [  0]   ***   
       SYM_CHECK            ISYMCK         OVERRIDE     [  1]   ***   
       T3_EXTRAPOL          IT3EXT         OFF          [  0]   ***   
       TAMP_SUM             IEVERY              0               ***   
       TESTSUITE            ITESTS         OFF          [  0]   ***   
       THERMOCH             ITHERM         OFF          [  0]   ***   
       TOL_CHOLESK          ITOLCH          10D-  4             ***   
       TRANGRAD             IRESRM         OFF          [  0]   ***   
       TRANS_INV            ITRAIN         USE          [  0]   ***   
       TREAT_PERT           ITREAT         SIMULTANEOUS [  0]   ***   
       UIJ_THRESHO          IUIJTH              1               ***   
       UNITS                IUNITS         ANGSTROM     [  0]   ***   
       UNOS                 IUNOS          OFF          [  0]   ***   
       UPDATE_HESS          IHUPDT         ON           [  1]   ***   
       VIBPHASE             ISETPH         STANDARD     [  0]   ***   
       VIBRATION            IVIB              NO        [  0]   ***   
       VIB_ALGORIT          IGEALG         STANDARD     [  0]   ***   
       VNATORB              IVNORB         OFF          [  0]   ***   
       VTRAN                IVTRAN         FULL/PARTIAL [  0]   ***   
       XFIELD               IXEFLD              0             x 10-6  
       XFORM_TOL            IXFTOL          10D- 11             ***   
       YFIELD               IYEFLD              0             x 10-6  
       ZFIELD               IZEFLD              0             x 10-6  
    -------------------------------------------------------------------
  @GETXYZ-I,     7 atoms read from ZMAT.
  1  C          6    12.00000
  2  N          7    14.00307
  3  O          8    15.99491
  4  S         16    31.97207
  5  H          1     1.00783
  6  H          1     1.00783
  7  H          1     1.00783
  1  C          6    12.00000
  2  N          7    14.00307
  3  O          8    15.99491
  4  S         16    31.97207
  5  H          1     1.00783
  6  H          1     1.00783
  7  H          1     1.00783
 factor:   60.1997200000000     
   Rotational constants (in cm-1): 
          0.1307624397             0.1396802651             0.6443474491
   Rotational constants (in MHz): 
       3920.1598702083          4187.5095866738         19317.0532646132
********************************************************************************
   The full molecular point group is C1  .
   The largest Abelian subgroup of the full molecular point group is C1  .
   The computational point group is C1  .
********************************************************************************
 ----------------------------------------------------------------
 Z-matrix   Atomic            Coordinates (in bohr)
  Symbol    Number           X              Y              Z
 ----------------------------------------------------------------
     C         6        -0.64833260    -0.03830021    -1.13827867
     N         7        -2.41918659     1.31118765     0.43859533
     O         8        -2.28737819    -1.30245446     0.37546269
     S        16         2.52374145    -0.04343073     0.16485621
     H         1        -1.11316041    -0.11718014    -3.18513107
     H         1        -4.00006127     1.79257013    -0.64362751
     H         1         2.68543797     2.61123021     0.09931477
 ----------------------------------------------------------------
   Interatomic distance matrix (Angstroms) 
 
                 C             N             O             S             H    
                [ 1]        [ 2]        [ 3]        [ 4]        [ 5]
  C    [ 1]     0.00000
  N    [ 2]     1.44375     0.00000
  O    [ 3]     1.35700     1.38524     0.00000
  S    [ 4]     1.81472     2.71600     2.63402     0.00000
  H    [ 5]     1.11151     2.17397     2.08078     2.61688     0.00000
  H    [ 6]     2.03791     1.04532     1.94799     3.61179     2.27242
  H    [ 7]     2.34669     2.79325     3.35191     1.40782     3.02424
 
                 H             H    
                [ 6]        [ 7]
  H    [ 6]     0.00000
  H    [ 7]     3.58586     0.00000
   Rotational constants (in cm-1): 
          0.6443474491             0.1396802651             0.1307624397
   Rotational constants (in MHz): 
      19317.0532646132          4187.5095866738          3920.1598702083
  There are   27 basis functions.
 @GEOPT-W, Archive file not created for single-point calculation.
  @CHECKOUT-I, Total execution time (CPU/WALL):        0.22/       0.23 seconds.
--executable xjoda finished with status     0 in        0.25 seconds (walltime).
 --invoking executable--
/home/eric/opt/apps/cfour/2.00beta-binary/bin/xvmol
 Serial version of molecule started
********************************************************************************
                    Input from MOL file
********************************************************************************
INTGRL        1    0    1    0    0    0    0    0    1                         
         *** CFOUR Program System (Release V0.1) ***                            
Comment line                                                                    
    7    0            0.10E-08              0    0                              
   9999.00      3.00                                                            
          6.00000000    1    2    1    1                                        
C #1  -0.648332601215029  -0.038300208038991  -1.138278670457919                
    6    2                                                                      
   71.6168373000000       0.154329000000000       0.000000000000000E+000        
   13.0450963000000       0.535328100000000       0.000000000000000E+000        
   3.53051220000000       0.444634500000000       0.000000000000000E+000        
   2.94124940000000       0.000000000000000E+000 -9.996720000000001E-002        
  0.683483100000000       0.000000000000000E+000  0.399512800000000             
  0.222289900000000       0.000000000000000E+000  0.700115500000000             
    3    1                                                                      
   2.94124940000000       0.155916300000000                                     
  0.683483100000000       0.607683700000000                                     
  0.222289900000000       0.391957400000000                                     
          7.00000000    1    2    1    1                                        
N #2  -2.419186594200434   1.311187649705339   0.438595327617362                
    6    2                                                                      
   99.1061690000000       0.154329000000000       0.000000000000000E+000        
   18.0523124000000       0.535328100000000       0.000000000000000E+000        
   4.88566020000000       0.444634500000000       0.000000000000000E+000        
   3.78045590000000       0.000000000000000E+000 -9.996720000000001E-002        
  0.878496600000000       0.000000000000000E+000  0.399512800000000             
  0.285714400000000       0.000000000000000E+000  0.700115500000000             
    3    1                                                                      
   3.78045590000000       0.155916300000000                                     
  0.878496600000000       0.607683700000000                                     
  0.285714400000000       0.391957400000000                                     
          8.00000000    1    2    1    1                                        
O #3  -2.287378189945216  -1.302454455872893   0.375462693763669                
    6    2                                                                      
   130.709321400000       0.154329000000000       0.000000000000000E+000        
   23.8088661000000       0.535328100000000       0.000000000000000E+000        
   6.44360830000000       0.444634500000000       0.000000000000000E+000        
   5.03315130000000       0.000000000000000E+000 -9.996720000000001E-002        
   1.16959610000000       0.000000000000000E+000  0.399512800000000             
  0.380389000000000       0.000000000000000E+000  0.700115500000000             
    3    1                                                                      
   5.03315130000000       0.155916300000000                                     
   1.16959610000000       0.607683700000000                                     
  0.380389000000000       0.391957400000000                                     
         16.00000000    1    2    1    1                                        
S #4   2.523741453803340  -0.043430734374966   0.164856207526683                
    9    3                                                                      
   533.125735900000       0.154329000000000       0.000000000000000E+000        
  0.000000000000000E+000                                                        
   97.1095183000000       0.535328100000000       0.000000000000000E+000        
  0.000000000000000E+000                                                        
   26.2816254000000       0.444634500000000       0.000000000000000E+000        
  0.000000000000000E+000                                                        
   33.3297517000000       0.000000000000000E+000 -9.996720000000001E-002        
  0.000000000000000E+000                                                        
   7.74511750000000       0.000000000000000E+000  0.399512800000000             
  0.000000000000000E+000                                                        
   2.51895260000000       0.000000000000000E+000  0.700115500000000             
  0.000000000000000E+000                                                        
   2.02919430000000       0.000000000000000E+000  0.000000000000000E+000        
 -0.219620400000000                                                             
  0.566140100000000       0.000000000000000E+000  0.000000000000000E+000        
  0.225595400000000                                                             
  0.221583400000000       0.000000000000000E+000  0.000000000000000E+000        
  0.900398400000000                                                             
    6    2                                                                      
   33.3297517000000       0.155916300000000       0.000000000000000E+000        
   7.74511750000000       0.607683700000000       0.000000000000000E+000        
   2.51895260000000       0.391957400000000       0.000000000000000E+000        
   2.02919430000000       0.000000000000000E+000  1.058760000000000E-002        
  0.566140100000000       0.000000000000000E+000  0.595167000000000             
  0.221583400000000       0.000000000000000E+000  0.462001000000000             
          1.00000000    1    1    1                                             
H #5  -1.113160410008717  -0.117180143151325  -3.185131073397318                
    3    1                                                                      
   3.42525090000000       0.154329000000000                                     
  0.623913700000000       0.535328100000000                                     
  0.168855400000000       0.444634500000000                                     
          1.00000000    1    1    1                                             
H #6  -4.000061266925683   1.792570128316795  -0.643627506526466                
    3    1                                                                      
   3.42525090000000       0.154329000000000                                     
  0.623913700000000       0.535328100000000                                     
  0.168855400000000       0.444634500000000                                     
          1.00000000    1    1    1                                             
H #7   2.685437972386735   2.611230210050161   0.099314768341005                
    3    1                                                                      
   3.42525090000000       0.154329000000000                                     
  0.623913700000000       0.535328100000000                                     
  0.168855400000000       0.444634500000000                                     
FINISH                                                                          
 
********************************************************************************
 One- and two-electron integrals over symmetry-adapted AOs are calculated.

  Cartesian gaussians are used.
  
  Integrals less than  0.10E-13 are neglected.

  Nuclear repulsion energy :  160.9970933444 a.u.
  required memory for a1 array                5013204  words 
  required memory for a2 array                2046060  words 
 @GETMEM-I,  Allocated      69 MB of main memory.
  @MOLECU-I, One electron integrals (CPU/WALL):        0.03/       0.03 seconds.
  @TWOEL-I,      66332 integrals of symmetry type  I I I I
  @TWOEL-I, Total number of 2-e integrals      66332.
  @MOLECU-I, Two electron integrals (CPU/WALL):        0.32/       0.10 seconds.
  @CHECKOUT-I, Total execution time (CPU/WALL):        0.35/       0.14 seconds.
--executable xvmol finished with status     0 in        0.27 seconds (walltime).
 --invoking executable--
/home/eric/opt/apps/cfour/2.00beta-binary/bin/xvmol2ja
 @GETMEM-I,  Allocated     762 MB of main memory.
  @CHECKOUT-I, Total execution time (CPU/WALL):        0.00/       0.00 seconds.
--executable xvmol2ja finished with status     0 in        0.01 seconds (walltime).
 --invoking executable--
/home/eric/opt/apps/cfour/2.00beta-binary/bin/xvscf
  There are   27 functions in the AO basis.

  There are 1 irreducible representations.

       Irrep        # of functions
         1                 27


  Parameters for SCF calculation: 
        SCF reference function:  RHF  
  Maximum number of iterations:  150
     Full symmetry point group: C1  
     Computational point group: C1  
        Initial density matrix: MOREAD                 
     SCF convergence tolerance: 10**(-10)
  DIIS convergence acceleration:  ON
          Latest start for DIIS:   8
                     DIIS order:   6

  Memory information:      71762 words required.
  Fock matrices are constructed from AO integral file.
 @GETMEM-I,  Allocated       0 MB of main memory.
  Initialization and symmetry analysis required      0.003 seconds.

  @INITGES-I, Occupancies from core Hamiltonian:

          Alpha population by irrep:  20
           Beta population by irrep:  20


 total no. of electrons in initial guess :  0.000000000000000E+000
  --------------------------------------------------------------------
  Iteration         Total Energy            Largest Density Difference
  --------------------------------------------------------------------
       0           160.997093344356898              0.0000000000D+00
       1          -549.709212451298981              0.3137649158D+01
       2          -549.260305048333294              0.3239600216D+01
       3          -549.440028652228420              0.3302624264D+01
       4          -549.516172005924204              0.2892454561D+01
       5          -548.791412710111217              0.3044888620D+01
       6          -549.495897434679705              0.2941060676D+01
       7          -548.703571349978574              0.2964289339D+01
       8          -549.490580633303580              0.2955434017D+01
       9          -559.107703128453068              0.2827638365D+01
      10          -559.741442887392395              0.4373782566D+00
      11          -559.799862595939885              0.2050061922D+00
      12          -559.805262019942234              0.7484610863D-01
      13          -559.805648855276331              0.1516385374D-01
      14          -559.805669794026358              0.3181926688D-02
      15          -559.805671753596130              0.1156532896D-02
      16          -559.805671912939374              0.3517260911D-03
      17          -559.805671927477533              0.1105425081D-03
      18          -559.805671927993785              0.2332996845D-04
      19          -559.805671928031643              0.6248331911D-05
      20          -559.805671928034144              0.8443365841D-06
      21          -559.805671928034599              0.3795410237D-06
      22          -559.805671928035395              0.1225978039D-06
      23          -559.805671928034599              0.4609456981D-07
      24          -559.805671928033348              0.1546586637D-07
      25          -559.805671928034826              0.6737827629D-08
      26          -559.805671928034826              0.3153632466D-08
      27          -559.805671928034485              0.1059388355D-08
      28          -559.805671928034258              0.1860199772D-09

  SCF has converged.

 Density matrix saved to file den.dat
 total electron number:   40.0000000000001     
     E(SCF)=      -559.805671928034371              0.6206968273D-10

  Eigenvector printing suppressed.

 @PUTMOS-I, Writing converged MOs to NEWMOS. 
 @PUTMOS-I, Symmetry   1 Full Blocks  6 Partial Blocksize   3


 
  ORBITAL EIGENVALUES (ALPHA)  (1H = 27.2113838 eV)

       MO #        E(hartree)               E(eV)           FULLSYM    COMPSYM
       ----   --------------------   --------------------   -------   ---------
    1     1         -90.7762619745       -2470.1477062957       A         A (1)
    2     2         -20.3427450515        -553.5542435394       A         A (1)
    3     3         -15.4024775362        -419.1227280099       A         A (1)
    4     4         -11.1420954365        -303.1918354777       A         A (1)
    5     5          -8.6747912735        -236.0530748969       A         A (1)
    6     6          -6.3069836508        -171.6217528662       A         A (1)
    7     7          -6.3049237877        -171.5657011405       A         A (1)
    8     8          -6.3017063302        -171.4781496694       A         A (1)
    9     9          -1.4753506315         -40.1463323022       A         A (1)
   10    10          -0.9950374610         -27.0763462650       A         A (1)
   11    11          -0.9450204867         -25.7153151813       A         A (1)
   12    12          -0.7882441961         -21.4492153645       A         A (1)
   13    13          -0.6849321122         -18.6379505948       A         A (1)
   14    14          -0.5582724145         -15.1913649459       A         A (1)
   15    15          -0.5320927600         -14.4789803210       A         A (1)
   16    16          -0.4688871824         -12.7590690875       A         A (1)
   17    17          -0.4034661657         -10.9788726943       A         A (1)
   18    18          -0.3769660269         -10.2577672445       A         A (1)
   19    19          -0.3449044603          -9.3853276497       A         A (1)
   20    20          -0.2848248016          -7.7504769977       A         A (1)
  +++++++++++++++++++++++++++++++++++++++++++++++++++++++++++++++++++++++++++++
   21    21           0.3836863885          10.4406375843       A         A (1)
   22    22           0.4384912785          11.9319544795       A         A (1)
   23    23           0.4764180660          12.9639948529       A         A (1)
   24    24           0.5615161239          15.2796307684       A         A (1)
   25    25           0.5916915756          16.1007465665       A         A (1)
   26    26           0.6957305646          18.9317914275       A         A (1)
   27    27           0.7512137798          20.4415664935       A         A (1)


  VSCF finished.

  @CHECKOUT-I, Total execution time (CPU/WALL):        0.04/       0.08 seconds.
--executable xvscf finished with status     0 in        0.08 seconds (walltime).
  The final electronic energy is      -559.805671928034371 a.u. 
  This computation required                            0.62 seconds (walltime).
