

     ************************************************************************
     *************** Dalton - An Electronic Structure Program ***************
     ************************************************************************

    This is output from DALTON release Dalton2016.0 (2015)
         ( Web site: http://daltonprogram.org )

   ----------------------------------------------------------------------------

    NOTE:
     
    Dalton is an experimental code for the evaluation of molecular
    properties using (MC)SCF, DFT, CI, and CC wave functions.
    The authors accept no responsibility for the performance of
    the code or for the correctness of the results.
     
    The code (in whole or part) is provided under a licence and
    is not to be reproduced for further distribution without
    the written permission of the authors or their representatives.
     
    See the home page "http://daltonprogram.org" for further information.
     
    If results obtained with this code are published,
    the appropriate citations would be both of:
     
       K. Aidas, C. Angeli, K. L. Bak, V. Bakken, R. Bast,
       L. Boman, O. Christiansen, R. Cimiraglia, S. Coriani,
       J. Cukras, P. Dahle, E. K. Dalskov, U. Ekstroem,
       T. Enevoldsen, J. J. Eriksen, P. Ettenhuber, B. Fernandez,
       L. Ferrighi, H. Fliegl, L. Frediani, K. Hald, A. Halkier,
       C. Haettig, H. Heiberg, T. Helgaker, A. C. Hennum,
       H. Hettema, E. Hjertenaes, S. Hoest, I.-M. Hoeyvik,
       M. F. Iozzi, B. Jansik, H. J. Aa. Jensen, D. Jonsson,
       P. Joergensen, M. Kaminski, J. Kauczor, S. Kirpekar,
       T. Kjaergaard, W. Klopper, S. Knecht, R. Kobayashi, H. Koch,
       J. Kongsted, A. Krapp, K. Kristensen, A. Ligabue,
       O. B. Lutnaes, J. I. Melo, K. V. Mikkelsen, R. H. Myhre,
       C. Neiss, C. B. Nielsen, P. Norman, J. Olsen,
       J. M. H. Olsen, A. Osted, M. J. Packer, F. Pawlowski,
       T. B. Pedersen, P. F. Provasi, S. Reine, Z. Rinkevicius,
       T. A. Ruden, K. Ruud, V. Rybkin, P. Salek, C. C. M. Samson,
       A. Sanchez de Meras, T. Saue, S. P. A. Sauer,
       B. Schimmelpfennig, K. Sneskov, A. H. Steindal,
       K. O. Sylvester-Hvid, P. R. Taylor, A. M. Teale,
       E. I. Tellgren, D. P. Tew, A. J. Thorvaldsen, L. Thoegersen,
       O. Vahtras, M. A. Watson, D. J. D. Wilson, M. Ziolkowski
       and H. Agren,
       "The Dalton quantum chemistry program system",
       WIREs Comput. Mol. Sci. 2014, 4:269–284 (doi: 10.1002/wcms.1172)
     
    and
     
       Dalton, a Molecular Electronic Structure Program,
       Release Dalton2016.0 (2015), see http://daltonprogram.org
   ----------------------------------------------------------------------------

    Authors in alphabetical order (major contribution(s) in parenthesis):

  Kestutis Aidas,           Vilnius University,           Lithuania   (QM/MM)
  Celestino Angeli,         University of Ferrara,        Italy       (NEVPT2)
  Keld L. Bak,              UNI-C,                        Denmark     (AOSOPPA, non-adiabatic coupling, magnetic properties)
  Vebjoern Bakken,          University of Oslo,           Norway      (DALTON; geometry optimizer, symmetry detection)
  Radovan Bast,             UiT The Arctic U. of Norway,  Norway      (DALTON installation and execution frameworks)
  Pablo Baudin,             University of Valencia,       Spain       (Cholesky excitation energies)
  Linus Boman,              NTNU,                         Norway      (Cholesky decomposition and subsystems)
  Ove Christiansen,         Aarhus University,            Denmark     (CC module)
  Renzo Cimiraglia,         University of Ferrara,        Italy       (NEVPT2)
  Sonia Coriani,            University of Trieste,        Italy       (CC module, MCD in RESPONS)
  Janusz Cukras,            University of Trieste,        Italy       (MChD in RESPONS)
  Paal Dahle,               University of Oslo,           Norway      (Parallelization)
  Erik K. Dalskov,          UNI-C,                        Denmark     (SOPPA)
  Thomas Enevoldsen,        Univ. of Southern Denmark,    Denmark     (SOPPA)
  Janus J. Eriksen,         Aarhus University,            Denmark     (Polarizable embedding model, TDA)
  Rasmus Faber,             University of Copenhagen,     Denmark     (Vib.avg. NMR with SOPPA, parallel AO-SOPPA)
  Berta Fernandez,          U. of Santiago de Compostela, Spain       (doublet spin, ESR in RESPONS)
  Lara Ferrighi,            Aarhus University,            Denmark     (PCM Cubic response)
  Heike Fliegl,             University of Oslo,           Norway      (CCSD(R12))
  Luca Frediani,            UiT The Arctic U. of Norway,  Norway      (PCM)
  Bin Gao,                  UiT The Arctic U. of Norway,  Norway      (Gen1Int library)
  Christof Haettig,         Ruhr-University Bochum,       Germany     (CC module)
  Kasper Hald,              Aarhus University,            Denmark     (CC module)
  Asger Halkier,            Aarhus University,            Denmark     (CC module)
  Frederik Beyer Hansen,    University of Copenhagen,     Denmark     (Parallel AO-SOPPA)
  Erik D. Hedegaard,        Univ. of Southern Denmark,    Denmark     (Polarizable embedding model, QM/MM)
  Hanne Heiberg,            University of Oslo,           Norway      (geometry analysis, selected one-electron integrals)
  Trygve Helgaker,          University of Oslo,           Norway      (DALTON; ABACUS, ERI, DFT modules, London, and much more)
  Alf Christian Hennum,     University of Oslo,           Norway      (Parity violation)
  Hinne Hettema,            University of Auckland,       New Zealand (quadratic response in RESPONS; SIRIUS supersymmetry)
  Eirik Hjertenaes,         NTNU,                         Norway      (Cholesky decomposition)
  Maria Francesca Iozzi,    University of Oslo,           Norway      (RPA)
  Brano Jansik              Technical Univ. of Ostrava    Czech Rep.  (DFT cubic response)
  Hans Joergen Aa. Jensen,  Univ. of Southern Denmark,    Denmark     (DALTON; SIRIUS, RESPONS, ABACUS modules, London, and much more)
  Dan Jonsson,              UiT The Arctic U. of Norway,  Norway      (cubic response in RESPONS module)
  Poul Joergensen,          Aarhus University,            Denmark     (RESPONS, ABACUS, and CC modules)
  Maciej Kaminski,          University of Warsaw,         Poland      (CPPh in RESPONS)
  Joanna Kauczor,           Linkoeping University,        Sweden      (Complex polarization propagator (CPP) module)
  Sheela Kirpekar,          Univ. of Southern Denmark,    Denmark     (Mass-velocity & Darwin integrals)
  Wim Klopper,              KIT Karlsruhe,                Germany     (R12 code in CC, SIRIUS, and ABACUS modules)
  Stefan Knecht,            ETH Zurich,                   Switzerland (Parallel CI and MCSCF)
  Rika Kobayashi,           Australian National Univ.,    Australia   (DIIS in CC, London in MCSCF)
  Henrik Koch,              NTNU,                         Norway      (CC module, Cholesky decomposition)
  Jacob Kongsted,           Univ. of Southern Denmark,    Denmark     (Polarizable embedding model, QM/MM)
  Andrea Ligabue,           University of Modena,         Italy       (CTOCD, AOSOPPA)
  Nanna H. List             Univ. of Southern Denmark,    Denmark     (Polarizable embedding model)
  Ola B. Lutnaes,           University of Oslo,           Norway      (DFT Hessian)
  Juan I. Melo,             University of Buenos Aires,   Argentina   (LRESC, Relativistic Effects on NMR Shieldings)
  Kurt V. Mikkelsen,        University of Copenhagen,     Denmark     (MC-SCRF and QM/MM)
  Rolf H. Myhre,            NTNU,                         Norway      (Cholesky, subsystems and ECC2)
  Christian Neiss,          Univ. Erlangen-Nuernberg,     Germany     (CCSD(R12))
  Christian B. Nielsen,     University of Copenhagen,     Denmark     (QM/MM)
  Patrick Norman,           Linkoeping University,        Sweden      (Cubic response and complex frequency response in RESPONS)
  Jeppe Olsen,              Aarhus University,            Denmark     (SIRIUS CI/density modules)
  Jogvan Magnus H. Olsen,   Univ. of Southern Denmark,    Denmark     (Polarizable embedding model, QM/MM)
  Anders Osted,             Copenhagen University,        Denmark     (QM/MM)
  Martin J. Packer,         University of Sheffield,      UK          (SOPPA)
  Filip Pawlowski,          Kazimierz Wielki University,  Poland      (CC3)
  Morten N. Pedersen,       Univ. of Southern Denmark,    Denmark     (Polarizable embedding model)
  Thomas B. Pedersen,       University of Oslo,           Norway      (Cholesky decomposition)
  Patricio F. Provasi,      University of Northeastern,   Argentina   (Analysis of coupling constants in localized orbitals)
  Zilvinas Rinkevicius,     KTH Stockholm,                Sweden      (open-shell DFT, ESR)
  Elias Rudberg,            KTH Stockholm,                Sweden      (DFT grid and basis info)
  Torgeir A. Ruden,         University of Oslo,           Norway      (Numerical derivatives in ABACUS)
  Kenneth Ruud,             UiT The Arctic U. of Norway,  Norway      (DALTON; ABACUS magnetic properties and much more)
  Pawel Salek,              KTH Stockholm,                Sweden      (DALTON; DFT code)
  Claire C. M. Samson       University of Karlsruhe       Germany     (Boys localization, r12 integrals in ERI)
  Alfredo Sanchez de Meras, University of Valencia,       Spain       (CC module, Cholesky decomposition)
  Trond Saue,               Paul Sabatier University,     France      (direct Fock matrix construction)
  Stephan P. A. Sauer,      University of Copenhagen,     Denmark     (SOPPA(CCSD), SOPPA prop., AOSOPPA, vibrational g-factors)
  Bernd Schimmelpfennig,    Forschungszentrum Karlsruhe,  Germany     (AMFI module)
  Kristian Sneskov,         Aarhus University,            Denmark     (Polarizable embedding model, QM/MM)
  Arnfinn H. Steindal,      UiT The Arctic U. of Norway,  Norway      (parallel QM/MM, Polarizable embedding model)
  Casper Steinmann,         Univ. of Southern Denmark,    Denmark     (QFIT, Polarizable embedding model)
  K. O. Sylvester-Hvid,     University of Copenhagen,     Denmark     (MC-SCRF)
  Peter R. Taylor,          VLSCI/Univ. of Melbourne,     Australia   (Symmetry handling ABACUS, integral transformation)
  Andrew M. Teale,          University of Nottingham,     England     (DFT-AC, DFT-D)
  David P. Tew,             University of Bristol,        England     (CCSD(R12))
  Olav Vahtras,             KTH Stockholm,                Sweden      (triplet response, spin-orbit, ESR, TDDFT, open-shell DFT)
  David J. Wilson,          La Trobe University,          Australia   (DFT Hessian and DFT magnetizabilities)
  Hans Agren,               KTH Stockholm,                Sweden      (SIRIUS module, RESPONS, MC-SCRF solvation model)
 --------------------------------------------------------------------------------

     Date and time (Linux)  : Wed Feb  3 15:11:42 2016
     Host name              : copper                                  

 * Work memory size             :    64000000 =  488.28 megabytes.

 * Directories for basis set searches:
   1) /home/eric/Chemistry/calc.epr/cpscfman_test_jobs/issc/energy_comparison_hf
   2) /home/eric/opt/apps/dalton/2016.0-g5.3.0-openblas-omp/dalton/basis


Compilation information
-----------------------

 Who compiled             | eric
 Host                     | copper
 System                   | Linux-4.3.3-2-ARCH
 CMake generator          | Unix Makefiles
 Processor                | x86_64
 64-bit integers          | OFF
 MPI                      | OFF
 Fortran compiler         | /usr/bin/gfortran
 C compiler               | /usr/bin/gcc
 C++ compiler             | /usr/bin/g++
 BLAS                     | /lib64/libopenblas.so
 LAPACK                   | /lib64/liblapack.so
 Static linking           | OFF
 Last Git revision        | 693735158eee69ff73df6846b9911e94803b8d7a
 Configuration time       | 2016-01-15 11:36:35.128575


   Content of the .dal input file
 ----------------------------------

BASIS                                             
STO-3G                                            
---                                               
---                                               
Atomtypes=5 Angstrom Charge=0 Nosymmetry          
Charge=6.0 Atoms=1                                
C         -4.17279        2.71785       -0.10705  
Charge=7.0 Atoms=1                                
N         -4.61074        1.36006        0.11435  
Charge=8.0 Atoms=1                                
O         -3.39764        1.66807       -0.47929  
Charge=16.0 Atoms=1                               
S         -3.54968        3.49993        1.40731  
Charge=1.0 Atoms=3                                
H         -4.65853        3.25487       -0.95033  
H         -5.24440        1.07756       -0.66755  
H         -4.78235        3.34711        2.06997  
                                                  
**DALTON INPUT                                    
.RUN ALL                                          
.DIRECT                                           
**INTEGRALS                                       
*TWOINT                                           
.IFTHRS                                           
20                                                
# .ICEDIF                                         
# 20                                              
**WAVE FUNCTIONS                                  
.HF                                               
# .DFT                                            
# PBE                                             
*SCF IN                                           
.THRESH                                           
 1.0D-09                                          
*DFT INPUT                                        
.ULTRAF                                           
# **PROPERTIES                                    
# .SHIELD                                         
# .SPIN-S                                         
**END OF DALTON INPUT                             


       *******************************************************************
       *********** Output from DALTON general input processing ***********
       *******************************************************************

 --------------------------------------------------------------------------------
   Overall default print level:    0
   Print level for DALTON.STAT:    1

    AO-direct calculation (in sections where implemented)
    HERMIT 1- and 2-electron integral sections will be executed
    "Old" integral transformation used (limited to max 255 basis functions)
    Wave function sections will be executed (SIRIUS module)
    Dynamic molecular response properties section will be executed (RESPONSE module)
    Static molecular property section will be executed (ABACUS module)
 --------------------------------------------------------------------------------


   ****************************************************************************
   *************** Output of molecule and basis set information ***************
   ****************************************************************************


    The two title cards from your ".mol" input:
    ------------------------------------------------------------------------
 1: ---                                                                     
 2: ---                                                                     
    ------------------------------------------------------------------------

  Coordinates are entered in Angstrom and converted to atomic units.
          - Conversion factor : 1 bohr = 0.52917721 A

  Atomic type no.    1
  --------------------
  Nuclear charge:   6.00000
  Number of symmetry independent centers:    1
  Number of basis sets to read;    2
  Basis set file used for this atomic type with Z =   6 :
     "/home/eric/opt/apps/dalton/2016.0-g5.3.0-openblas-omp/dalton/basis/STO-3G"

  Atomic type no.    2
  --------------------
  Nuclear charge:   7.00000
  Number of symmetry independent centers:    1
  Number of basis sets to read;    2
  Basis set file used for this atomic type with Z =   7 :
     "/home/eric/opt/apps/dalton/2016.0-g5.3.0-openblas-omp/dalton/basis/STO-3G"

  Atomic type no.    3
  --------------------
  Nuclear charge:   8.00000
  Number of symmetry independent centers:    1
  Number of basis sets to read;    2
  Basis set file used for this atomic type with Z =   8 :
     "/home/eric/opt/apps/dalton/2016.0-g5.3.0-openblas-omp/dalton/basis/STO-3G"

  Atomic type no.    4
  --------------------
  Nuclear charge:  16.00000
  Number of symmetry independent centers:    1
  Number of basis sets to read;    2
  Basis set file used for this atomic type with Z =  16 :
     "/home/eric/opt/apps/dalton/2016.0-g5.3.0-openblas-omp/dalton/basis/STO-3G"

  Atomic type no.    5
  --------------------
  Nuclear charge:   1.00000
  Number of symmetry independent centers:    3
  Number of basis sets to read;    2
  Basis set file used for this atomic type with Z =   1 :
     "/home/eric/opt/apps/dalton/2016.0-g5.3.0-openblas-omp/dalton/basis/STO-3G"


                         SYMGRP: Point group information
                         -------------------------------

@    Point group: C1 


                                 Isotopic Masses
                                 ---------------

                           C          12.000000
                           N          14.003074
                           O          15.994915
                           S          31.972072
                           H           1.007825
                           H           1.007825
                           H           1.007825

                       Total mass:    76.993536 amu
                       Natural abundance:  93.360 %

 Center-of-mass coordinates (a.u.):   -7.296276    4.859201    0.935142


  Atoms and basis sets
  --------------------

  Number of atom types :    5
  Total number of atoms:    7

  Basis set used is "STO-3G" from the basis set library.

  label    atoms   charge   prim   cont     basis
  ----------------------------------------------------------------------
  C           1    6.0000    15     5      [6s3p|2s1p]                                        
  N           1    7.0000    15     5      [6s3p|2s1p]                                        
  O           1    8.0000    15     5      [6s3p|2s1p]                                        
  S           1   16.0000    27     9      [9s6p|3s2p]                                        
  H           3    1.0000     3     1      [3s|1s]                                            
  ----------------------------------------------------------------------
  total:      7   40.0000    81    27
  ----------------------------------------------------------------------
  Spherical harmonic basis used.

  Threshold for neglecting AO integrals:  1.00D-12


  Cartesian Coordinates (a.u.)
  ----------------------------

  Total number of coordinates:   21
  C       :     1  x  -7.8854302771    2  y   5.1359921488    3  z  -0.2022951817
  N       :     4  x  -8.7130358336    5  y   2.5701409136    6  z   0.2160901824
  O       :     7  x  -6.4206090713    8  y   3.1521954573    9  z  -0.9057268344
  S       :    10  x  -6.7079230314   11  y   6.6139091566   12  z   2.6594304730
  H       :    13  x  -8.8033458451   14  y   6.1508128725   15  z  -1.7958634284
  H       :    16  x  -9.9104796899   17  y   2.0362932832   18  z  -1.2614866747
  H       :    19  x  -9.0373317339   20  y   6.3251212102   21  z   3.9116763870


   Interatomic separations (in Angstrom):
   --------------------------------------

            C           N           O           S           H           H     
            ------      ------      ------      ------      ------      ------
 C     :    0.000000
 N     :    1.443749    0.000000
 O     :    1.357003    1.385240    0.000000
 S     :    1.814718    2.715997    2.634025    0.000000
 H     :    1.111510    2.173967    2.080783    2.616882    0.000000
 H     :    2.037906    1.045322    1.947990    3.611786    2.272419    0.000000
 H     :    2.346689    2.793254    3.351913    1.407817    3.024244    3.585856

            H     
            ------
 H     :    0.000000


  Max    interatomic separation is    3.6118 Angstrom (    6.8253 Bohr)
  between atoms    6 and    4, "H     " and "S     ".

  Min HX interatomic separation is    1.0453 Angstrom (    1.9754 Bohr)

  Min YX interatomic separation is    1.3570 Angstrom (    2.5644 Bohr)


  Bond distances (Angstrom):
  --------------------------

                  atom 1     atom 2       distance
                  ------     ------       --------
  bond distance:  N          C            1.443749
  bond distance:  O          C            1.357003
  bond distance:  O          N            1.385240
  bond distance:  S          C            1.814718
  bond distance:  H          C            1.111510
  bond distance:  H          N            1.045322
  bond distance:  H          S            1.407817


  Bond angles (degrees):
  ----------------------

                  atom 1     atom 2     atom 3         angle
                  ------     ------     ------         -----
  bond angle:     N          C          O             59.189
  bond angle:     N          C          S            112.426
  bond angle:     N          C          H            115.986
  bond angle:     O          C          S            111.479
  bond angle:     O          C          H            114.537
  bond angle:     S          C          H            125.096
  bond angle:     C          N          O             57.284
  bond angle:     C          N          H            108.865
  bond angle:     O          N          H            105.688
  bond angle:     C          O          N             63.527
  bond angle:     C          S          H             92.600




 Principal moments of inertia (u*A**2) and principal axes
 --------------------------------------------------------

   IA      26.162331          0.189319    0.735225    0.650848
   IB     120.687284          0.878164    0.169770   -0.447220
   IC     128.917997          0.439301   -0.656219    0.613508


 Rotational constants
 --------------------

               A                   B                   C

          19317.0478           4187.5083           3920.1587 MHz
            0.644347            0.139680            0.130762 cm-1


@  Nuclear repulsion energy :  160.997127054202 Hartree


                     .---------------------------------------.
                     | Starting in Integral Section (HERMIT) |
                     `---------------------------------------'



 ***************************************************************************************
 ****************** Output from **INTEGRALS input processing (HERMIT) ******************
 ***************************************************************************************



    *************************************************************************
    ****************** Output from HERMIT input processing ******************
    *************************************************************************


 Default print level:        1

 * Nuclear model: Point charge

 Calculation of one-electron Hamiltonian integrals.

 Center of mass  (bohr):     -7.296275539483      4.859200685300      0.935141813099
 Operator center (bohr):      0.000000000000      0.000000000000      0.000000000000
 Gauge origin    (bohr):      0.000000000000      0.000000000000      0.000000000000
 Dipole origin   (bohr):      0.000000000000      0.000000000000      0.000000000000


  Set-up from HR2INP:
  -------------------

 Print level in TWOINT:    1
 * Direct calculation of Fock matrices in AO-basis.
 * Screening threshold in direct Fock matrix construction: 1.00D-20
    ---> WARNING : Screening turned off !
 * Separate density screening of Coulomb integral batches
 * Separate density screening of exchange integral batches


     ************************************************************************
     ************************** Output from HERINT **************************
     ************************************************************************

  Total CPU  time used in HERMIT:   0.03 seconds
  Total wall time used in HERMIT:   0.03 seconds


                        .----------------------------------.
                        | End of Integral Section (HERMIT) |
                        `----------------------------------'



                   .--------------------------------------------.
                   | Starting in Wave Function Section (SIRIUS) |
                   `--------------------------------------------'



 Settings for DFT calculation:
 -----------------------------

     Default thresholds:                                       1.00D-09    1.00D-10    2.00D-12
     Default threshold for number of electrons:                1.00D-03
     DFT radial quadrature accuracy and ang. expansion order:              2.00D-15  64

 *** Output from Huckel module :

     Using EWMO model:          T
     Using EHT  model:          F
     Number of Huckel orbitals each symmetry:   32

 EWMO - Energy Weighted Maximum Overlap - is a Huckel type method,
        which normally is better than Extended Huckel Theory.
 Reference: Linderberg and Ohrn, Propagators in Quantum Chemistry (Wiley, 1973)

 Huckel EWMO eigenvalues for symmetry :  1
          -92.010568     -20.684881     -15.673285     -11.350615      -9.016598
           -6.688720      -6.688683      -6.688062      -1.968514      -1.248871
           -1.153066      -0.996380      -0.798909      -0.648715      -0.615290
           -0.608025      -0.488448      -0.473976      -0.452948      -0.407589
           -0.283859      -0.234732      -0.193819      -0.179683      -0.173031
           -0.147537      -0.115733      -0.055338      -0.050992      -0.049872
           -0.048670      -0.035571

HUCDRV: reduced number of huckel orbitals in sym 1 from 32 to 27

 **********************************************************************
 *SIRIUS* a direct, restricted step, second order MCSCF program       *
 **********************************************************************

 
     Date and time (Linux)  : Wed Feb  3 15:11:42 2016
     Host name              : copper                                  

 Title lines from ".mol" input file:
     ---                                                                     
     ---                                                                     

 Print level on unit LUPRI =   2 is   0
 Print level on unit LUW4  =   2 is   5

@    Restricted, closed shell Hartree-Fock calculation.

@    Time-dependent Hartree-Fock calculation (random phase approximation).
 Fock matrices are calculated directly without use of integrals on disk.

 Initial molecular orbitals are obtained according to
 ".MOSTART EWMO  " input option

     Wave function specification
     ============================
@    Wave function type        --- HF ---
@    Number of closed shell electrons          40
@    Number of electrons in active shells       0
@    Total charge of the molecule               0

@    Spin multiplicity and 2 M_S                1         0
@    Total number of symmetries                 1 (point group: C1 )
@    Reference state symmetry                   1 (irrep name : A  )

     Orbital specifications
     ======================
@    Abelian symmetry species          All |    1
@                                          |  A  
                                       --- |  ---
@    Occupied SCF orbitals              20 |   20
@    Secondary orbitals                  7 |    7
@    Total number of orbitals           27 |   27
@    Number of basis functions          27 |   27

     Optimization information
     ========================
@    Number of configurations                 1
@    Number of orbital rotations            140
     ------------------------------------------
@    Total number of variables              141

     Maximum number of Fock   iterations      0
     Maximum number of DIIS   iterations     60
     Maximum number of QC-SCF iterations     60
     Threshold for SCF convergence     1.00D-09


 ***********************************************
 ***** DIIS acceleration of SCF iterations *****
 ***********************************************

 C1-DIIS algorithm; max error vectors =    8

 Iter      Total energy        Error norm    Delta(E)  DIIS dim.
 -----------------------------------------------------------------------------
@  1    -559.470746931        1.88152D+00   -5.59D+02    1
      Virial theorem: -V/T =      2.010214
@      MULPOP C       0.92; N      -0.19; O      -0.66; S       0.13; H      -0.16; H       0.06; H      -0.11; 
   1  Level shift: doubly occupied orbital energies shifted by -2.00D-01
 -----------------------------------------------------------------------------
@  2    -559.785488374        4.40823D-01   -3.15D-01    2
      Virial theorem: -V/T =      2.011620
@      MULPOP C      -0.15; N      -0.22; O      -0.09; S       0.24; H       0.11; H       0.15; H      -0.04; 
   2  Level shift: doubly occupied orbital energies shifted by -5.00D-02
 -----------------------------------------------------------------------------
@  3    -559.803767662        1.12943D-01   -1.83D-02    3
      Virial theorem: -V/T =      2.011223
@      MULPOP C       0.03; N      -0.22; O      -0.18; S       0.15; H       0.08; H       0.16; H      -0.02; 
   3  Level shift: doubly occupied orbital energies shifted by -2.50D-02
 -----------------------------------------------------------------------------
@  4    -559.805571166        2.14282D-02   -1.80D-03    4
      Virial theorem: -V/T =      2.011156
@      MULPOP C       0.00; N      -0.22; O      -0.17; S       0.16; H       0.08; H       0.16; H      -0.02; 
 -----------------------------------------------------------------------------
@  5    -559.805654289        6.35833D-03   -8.31D-05    5
      Virial theorem: -V/T =      2.011149
@      MULPOP C       0.01; N      -0.22; O      -0.17; S       0.16; H       0.08; H       0.16; H      -0.02; 
 -----------------------------------------------------------------------------
@  6    -559.805663761        1.19794D-03   -9.47D-06    6
      Virial theorem: -V/T =      2.011152
@      MULPOP C       0.01; N      -0.22; O      -0.17; S       0.16; H       0.08; H       0.16; H      -0.02; 
 -----------------------------------------------------------------------------
@  7    -559.805664104        3.36718D-04   -3.43D-07    7
      Virial theorem: -V/T =      2.011153
@      MULPOP C       0.01; N      -0.22; O      -0.17; S       0.16; H       0.08; H       0.16; H      -0.02; 
 -----------------------------------------------------------------------------
@  8    -559.805664130        1.04593D-04   -2.62D-08    8
      Virial theorem: -V/T =      2.011153
@      MULPOP C       0.01; N      -0.22; O      -0.17; S       0.16; H       0.08; H       0.16; H      -0.02; 
 -----------------------------------------------------------------------------
@  9    -559.805664133        4.09632D-05   -2.29D-09    8
      Virial theorem: -V/T =      2.011153
@      MULPOP C       0.01; N      -0.22; O      -0.17; S       0.16; H       0.08; H       0.16; H      -0.02; 
 -----------------------------------------------------------------------------
@ 10    -559.805664133        8.73720D-06   -3.89D-10    8
      Virial theorem: -V/T =      2.011153
@      MULPOP C       0.01; N      -0.22; O      -0.17; S       0.16; H       0.08; H       0.16; H      -0.02; 
 -----------------------------------------------------------------------------
@ 11    -559.805664133        2.04239D-06   -1.84D-11    8
      Virial theorem: -V/T =      2.011153
@      MULPOP C       0.01; N      -0.22; O      -0.17; S       0.16; H       0.08; H       0.16; H      -0.02; 
 -----------------------------------------------------------------------------
@ 12    -559.805664133        4.70348D-07   -1.25D-12    8
      Virial theorem: -V/T =      2.011153
@      MULPOP C       0.01; N      -0.22; O      -0.17; S       0.16; H       0.08; H       0.16; H      -0.02; 
 -----------------------------------------------------------------------------
@ 13    -559.805664133        1.68001D-07    4.55D-13    8
      Virial theorem: -V/T =      2.011153
@      MULPOP C       0.01; N      -0.22; O      -0.17; S       0.16; H       0.08; H       0.16; H      -0.02; 
 -----------------------------------------------------------------------------
@ 14    -559.805664133        3.74370D-08   -3.41D-13    8
      Virial theorem: -V/T =      2.011153
@      MULPOP C       0.01; N      -0.22; O      -0.17; S       0.16; H       0.08; H       0.16; H      -0.02; 
 -----------------------------------------------------------------------------
@ 15    -559.805664133        9.30701D-09    4.55D-13    8
      Virial theorem: -V/T =      2.011153
@      MULPOP C       0.01; N      -0.22; O      -0.17; S       0.16; H       0.08; H       0.16; H      -0.02; 
 -----------------------------------------------------------------------------
@ 16    -559.805664133        2.02144D-09   -2.27D-13    8
      Virial theorem: -V/T =      2.011153
@      MULPOP C       0.01; N      -0.22; O      -0.17; S       0.16; H       0.08; H       0.16; H      -0.02; 
 -----------------------------------------------------------------------------
@ 17    -559.805664133        5.88076D-10   -9.09D-13    8

@ *** DIIS converged in  17 iterations !
@     Converged SCF energy, gradient:   -559.805664133021    5.88D-10
    - total time used in SIRFCK :              0.00 seconds


 *** SCF orbital energy analysis ***

 Number of electrons :   40
 Orbital occupations :   20

 Sym       Hartree-Fock orbital energies

1 A     -90.77627466   -20.34274568   -15.40247792   -11.14209589    -8.67479526
         -6.30698561    -6.30492574    -6.30170823    -1.47535112    -0.99503769
         -0.94502090    -0.78824450    -0.68493245    -0.55827275    -0.53209304
         -0.46888750    -0.40346641    -0.37696637    -0.34490460    -0.28482528
          0.38368619     0.43849122     0.47641804     0.56151622     0.59169160
          0.69573069     0.75121388

    E(LUMO) :     0.38368619 au (symmetry 1)
  - E(HOMO) :    -0.28482528 au (symmetry 1)
  ------------------------------------------
    gap     :     0.66851147 au

 --- Writing SIRIFC interface file

 CPU and wall time for SCF :       2.193       2.084


                       .-----------------------------------.
                       | --- Final results from SIRIUS --- |
                       `-----------------------------------'


@    Spin multiplicity:           1
@    Spatial symmetry:            1 ( irrep  A   in C1  )
@    Total charge of molecule:    0

@    Final HF energy:            -559.805664133021                 
@    Nuclear repulsion:           160.997127054202
@    Electronic energy:          -720.802791187223

@    Final gradient norm:           0.000000000588

 
     Date and time (Linux)  : Wed Feb  3 15:11:45 2016
     Host name              : copper                                  

File label for MO orbitals:   3Feb16   FOCKDIIS

 (Only coefficients >0.0100 are printed.)

 Molecular orbitals for symmetry species 1  (A  )
 ------------------------------------------------

    Orbital         1        2        3        4        5        6        7
   1 C   :1s     0.0001   0.0005   0.0004   0.9923  -0.0013  -0.0012   0.0009
   2 C   :1s    -0.0005  -0.0045  -0.0052   0.0342   0.0083   0.0099  -0.0082
   6 N   :1s     0.0000   0.0003   0.9937   0.0004  -0.0000  -0.0000   0.0000
   7 N   :1s     0.0000  -0.0027   0.0294  -0.0053  -0.0002  -0.0000   0.0005
  11 O   :1s    -0.0000   0.9943   0.0004   0.0004   0.0000   0.0000   0.0000
  12 O   :1s     0.0000   0.0251  -0.0032  -0.0050  -0.0004  -0.0006  -0.0000
  16 S   :1s    -0.9942   0.0000  -0.0000  -0.0001   0.3673  -0.0007   0.0067
  17 S   :1s    -0.0171  -0.0000   0.0000   0.0002  -1.0469   0.0020  -0.0195
  18 S   :1s     0.0025   0.0002   0.0001  -0.0040  -0.0534  -0.0009   0.0092
  19 S   :2px    0.0002  -0.0000   0.0000  -0.0002   0.0135  -0.2777  -0.9012
  20 S   :2py    0.0001   0.0000  -0.0000  -0.0003   0.0053   0.2382  -0.3499
  21 S   :2pz    0.0001   0.0000  -0.0000  -0.0004   0.0043   0.9131  -0.1828
  22 S   :2px   -0.0003   0.0001  -0.0001   0.0013   0.0071  -0.0168  -0.0536
  23 S   :2py   -0.0002  -0.0002  -0.0001   0.0019   0.0032   0.0145  -0.0209
  24 S   :2pz   -0.0001  -0.0001  -0.0000   0.0033   0.0024   0.0552  -0.0108
  27 H   :1s    -0.0006  -0.0000  -0.0001   0.0000   0.0102  -0.0096  -0.0117

    Orbital         8        9       10       11       12       13       14
   1 C   :1s    -0.0001   0.0960  -0.0309  -0.1267   0.1471  -0.0221  -0.0339
   2 C   :1s     0.0004  -0.2077   0.0768   0.4001  -0.4946   0.0829   0.1497
   3 C   :2px    0.0013  -0.0362  -0.1676   0.0412   0.0791   0.0661   0.1285
   4 C   :2py   -0.0036   0.1107  -0.0239   0.0907  -0.0031  -0.2409   0.3058
   5 C   :2pz    0.0014   0.0185   0.0674   0.0921   0.2108   0.2644   0.1923
   6 N   :1s    -0.0000   0.1129  -0.1776   0.0530  -0.0480  -0.0208  -0.0451
   7 N   :1s    -0.0003  -0.3329   0.6532  -0.2063   0.2131   0.0879   0.2065
   8 N   :2px    0.0002  -0.0870  -0.1173  -0.0155   0.0786   0.2119  -0.1770
   9 N   :2py   -0.0002  -0.0728   0.0661   0.0776  -0.1748   0.2242  -0.2591
  10 N   :2pz    0.0007   0.0833  -0.0801   0.0881   0.0036   0.2751   0.2079
  11 O   :1s     0.0000   0.1821   0.1496   0.0323  -0.0497   0.0548  -0.0343
  12 O   :1s    -0.0005  -0.6192  -0.6271  -0.1389   0.2343  -0.2666   0.1783
  13 O   :2px    0.0005   0.1424  -0.0968   0.0429   0.0636  -0.0518   0.4452
  14 O   :2py   -0.0002  -0.0558  -0.0784   0.1198  -0.2368   0.0964  -0.0534
  15 O   :2pz    0.0002  -0.0595   0.0270   0.0328   0.0783   0.3955   0.2117
  16 S   :1s     0.0002  -0.0034   0.0072   0.0670   0.0459  -0.0198  -0.0133
  17 S   :1s    -0.0005   0.0120  -0.0248  -0.2292  -0.1550   0.0657   0.0438
  18 S   :1s    -0.0001  -0.0255   0.0684   0.6436   0.4784  -0.2214  -0.1567
  19 S   :2px   -0.2812  -0.0023   0.0094   0.0350   0.0148  -0.0080  -0.0267
  20 S   :2py    0.8901  -0.0040   0.0030   0.0195   0.0002   0.0331   0.0262
  21 S   :2pz   -0.3178  -0.0056   0.0015   0.0288  -0.0287   0.0208   0.1025
  22 S   :2px   -0.0141   0.0052  -0.0227  -0.0848  -0.0360   0.0227   0.0759
  23 S   :2py    0.0449   0.0066  -0.0071  -0.0456  -0.0010  -0.0942  -0.0743
  24 S   :2pz   -0.0159   0.0110  -0.0042  -0.0681   0.0744  -0.0515  -0.2849
  25 H   :1s     0.0006  -0.0203   0.0286   0.0969  -0.2733  -0.1918   0.0671
  26 H   :1s     0.0002  -0.0308   0.1927  -0.0835   0.0583  -0.2719   0.1452
  27 H   :1s    -0.0000  -0.0013   0.0214   0.1318   0.1506  -0.0856  -0.2457

    Orbital        15       16       17       18       19       20       21
   1 C   :1s    -0.0087  -0.0024   0.0170  -0.0341   0.0036  -0.0053  -0.0909
   2 C   :1s     0.0015  -0.0123  -0.0866   0.1430  -0.0329   0.0142   0.4908
   3 C   :2px   -0.3639   0.1964   0.2305   0.1930  -0.2025   0.0058  -0.2769
   4 C   :2py    0.2449   0.1421   0.0307   0.1527  -0.0889   0.0249   0.1267
   5 C   :2pz   -0.0067  -0.0605  -0.3724   0.2231   0.0203  -0.0132   0.4561
   6 N   :1s    -0.0126   0.0123  -0.0345   0.0474   0.0729   0.0116   0.0277
   7 N   :1s     0.0998  -0.0478   0.1608  -0.2331  -0.3734  -0.0541  -0.1790
   8 N   :2px    0.3463   0.3206   0.0916   0.0935  -0.0683   0.0457   0.2070
   9 N   :2py   -0.0206  -0.2135  -0.3545  -0.1276   0.2911  -0.0939  -0.3644
  10 N   :2pz    0.1384  -0.2556   0.1644  -0.3675  -0.4867  -0.0360  -0.0605
  11 O   :1s    -0.0208   0.0515   0.0310   0.0158  -0.0134   0.0066  -0.0053
  12 O   :1s     0.1173  -0.2513  -0.1593  -0.0788   0.0614  -0.0310   0.0385
  13 O   :2px   -0.0194  -0.4233   0.0124  -0.1972   0.3215  -0.0309   0.0195
  14 O   :2py   -0.5235  -0.0893   0.2668  -0.0123  -0.1314  -0.0890   0.2785
  15 O   :2pz    0.0820   0.1285   0.5053   0.0777   0.6258  -0.0573  -0.0816
  16 S   :1s    -0.0096   0.0223  -0.0058  -0.0317   0.0065   0.0002   0.0018
  17 S   :1s     0.0313  -0.0712   0.0184   0.0996  -0.0205  -0.0008  -0.0042
  18 S   :1s    -0.1173   0.2901  -0.0760  -0.4358   0.0915  -0.0005   0.0429
  19 S   :2px    0.0474  -0.1065   0.0325   0.1703  -0.0386  -0.0822   0.0716
  20 S   :2py   -0.0150  -0.0311  -0.0276   0.0627  -0.0145   0.2837  -0.0498
  21 S   :2pz   -0.0046   0.0745  -0.0982   0.0753  -0.0339  -0.0908  -0.2092
  22 S   :2px   -0.1391   0.3127  -0.0944  -0.5223   0.1224   0.2719  -0.2644
  23 S   :2py    0.0446   0.0983   0.0801  -0.1872   0.0432  -0.9356   0.1814
  24 S   :2pz    0.0100  -0.2160   0.2903  -0.2287   0.1031   0.3011   0.7611
  25 H   :1s     0.2942   0.0368   0.2276  -0.1254   0.0745   0.1209  -0.1711
  26 H   :1s    -0.2596   0.0061   0.0266   0.1727   0.2210   0.0281   0.1116
  27 H   :1s     0.0821  -0.3515   0.2756   0.2644  -0.0418   0.0041  -0.6047

    Orbital        22       23       24       25       26       27
   1 C   :1s    -0.1060   0.0620  -0.0255  -0.0283  -0.1443   0.1031
   2 C   :1s     0.5672  -0.3479   0.1481   0.2146   0.8788  -0.5760
   3 C   :2px    0.5536   0.3730   0.1918  -0.4911  -0.2212  -0.3244
   4 C   :2py    0.5004   0.0033   0.1773   0.2462  -0.2254   0.9825
   5 C   :2pz    0.1630  -0.2693  -0.3870  -0.1940  -0.7586  -0.2595
   6 N   :1s    -0.0076  -0.0014  -0.1366  -0.0056   0.0730  -0.0350
   7 N   :1s     0.0666   0.0302   0.8456   0.1019  -0.4976   0.2499
   8 N   :2px   -0.2170  -0.3376   0.2278  -0.7302   0.2132   0.3754
   9 N   :2py    0.3295   0.3298   0.1139  -0.3470  -0.1670   0.6121
  10 N   :2pz    0.0282   0.1624  -0.6251  -0.1673   0.3882   0.1784
  11 O   :1s     0.0086  -0.0136   0.0687  -0.0659   0.0359  -0.0470
  12 O   :1s    -0.0544   0.0725  -0.4110   0.4148  -0.2414   0.3343
  13 O   :2px   -0.1439  -0.2081   0.6071  -0.4224   0.1488  -0.1454
  14 O   :2py   -0.4099  -0.2944   0.0314   0.0877  -0.3718   0.5168
  15 O   :2pz   -0.0128   0.1346  -0.1804   0.3451   0.0299   0.0960
  16 S   :1s    -0.0281   0.0270   0.0057   0.0028   0.0065   0.0044
  17 S   :1s     0.0830  -0.0787  -0.0163  -0.0082  -0.0174  -0.0125
  18 S   :1s    -0.4580   0.4529   0.1007   0.0464   0.1265   0.0815
  19 S   :2px   -0.1020   0.1997   0.0484  -0.0138   0.0256  -0.0004
  20 S   :2py   -0.0748   0.0458   0.0223   0.0279   0.0191   0.0421
  21 S   :2pz   -0.1498  -0.0486  -0.0139   0.0202   0.0278   0.0142
  22 S   :2px    0.3819  -0.7460  -0.1818   0.0510  -0.1015  -0.0011
  23 S   :2py    0.2783  -0.1721  -0.0842  -0.1049  -0.0769  -0.1671
  24 S   :2pz    0.5499   0.1800   0.0494  -0.0777  -0.1122  -0.0589
  25 H   :1s    -0.2700   0.1811  -0.3394  -0.5070  -0.9217  -0.3882
  26 H   :1s     0.0047  -0.0024  -0.7167  -0.6929   0.4993   0.3978
  27 H   :1s     0.2834  -0.7670  -0.1444   0.0185  -0.0585  -0.0212

  Total CPU  time used in SIRIUS :  48 hours  0 minutes  0 seconds
  Total wall time used in SIRIUS :   0.00 seconds

 
     Date and time (Linux)  : Wed Feb  3 15:11:45 2016
     Host name              : copper                                  


                     .---------------------------------------.
                     | End of Wave Function Section (SIRIUS) |
                     `---------------------------------------'



                 .------------------------------------------------.
                 | Starting in Dynamic Property Section (RESPONS) |
                 `------------------------------------------------'


 ------------------------------------------------------------------------------
  RESPONSE  -  an MCSCF, MC-srDFT, DFT, and SOPPA response property program
 ------------------------------------------------------------------------------


 -------- OUTPUT FROM RESPONSE INPUT PROCESSING --------




   SCF energy         :     -559.805664133020855
 -- inactive part     :     -720.802791187222510
 -- nuclear repulsion :      160.997127054201655


                     ***************************************
                     *** RHF response calculation (TDHF) ***
                     ***************************************


  Total CPU  time used in RESPONSE:   0.00 seconds
  Total wall time used in RESPONSE:   0.00 seconds


                   .-------------------------------------------.
                   | End of Dynamic Property Section (RESPONS) |
                   `-------------------------------------------'


 Center of mass dipole origin  :   -7.296276    4.859201    0.935142

 Center of mass gauge origin   :   -7.296276    4.859201    0.935142


                 .------------------------------------------------.
                 | Starting in Static Property Section (ABACUS) - |
                 `------------------------------------------------'


 
     Date and time (Linux)  : Wed Feb  3 15:11:45 2016
     Host name              : copper                                  


   ***************************************************************************
   ************************ FINAL RESULTS from ABACUS ************************
   ***************************************************************************


 
     Date and time (Linux)  : Wed Feb  3 15:11:45 2016
     Host name              : copper                                  


                             Molecular geometry (au)
                             -----------------------

 C         -7.8854302771            5.1359921488           -0.2022951817
 N         -8.7130358336            2.5701409136            0.2160901824
 O         -6.4206090713            3.1521954573           -0.9057268344
 S         -6.7079230314            6.6139091566            2.6594304730
 H         -8.8033458451            6.1508128725           -1.7958634284
 H         -9.9104796899            2.0362932832           -1.2614866747
 H         -9.0373317339            6.3251212102            3.9116763870





                        Molecular wave function and energy
                        ----------------------------------

     Spatial symmetry   1 ( A   )
     Spin multiplicity  1
     2 * M_S            0
     State number       1
     Total charge       0

     Total energy       -559.8056641330 au (Hartrees)
                        -15233.08700964 eV
                          -1469769.5446 kJ/mol
                           -351283.3520 kcal/mol


                   Scalar Breit-Pauli relativistic corrections
                   -------------------------------------------

     Darwin correction:                          2.4934991617 au
     Mass-velocity correction:                  -3.3883784940 au

     Total relativistic correction:             -0.8948793323 au (0.1599%)
     Non-relativistic + relativistic energy:  -560.7005434653 au



      (Note that these corrections are NOT included in the results below.)


                                  Dipole moment
                                  -------------

                 au               Debye          C m (/(10**-30)
              0.976225           2.481317           8.276783


                             Dipole moment components
                             ------------------------

                 au               Debye          C m (/(10**-30)

      x     -0.73569112        -1.86994018        -6.23744903
      y      0.49436574         1.25655230         4.19140732
      z     -0.40911737        -1.03987258        -3.46864155


   Units:   1 a.u. =   2.54175 Debye 
            1 a.u. =   8.47835 (10**-30) C m (SI)




   Interatomic separations (in Angstrom):
   --------------------------------------

            C           N           O           S           H           H     
            ------      ------      ------      ------      ------      ------
 C     :    0.000000
 N     :    1.443749    0.000000
 O     :    1.357003    1.385240    0.000000
 S     :    1.814718    2.715997    2.634025    0.000000
 H     :    1.111510    2.173967    2.080783    2.616882    0.000000
 H     :    2.037906    1.045322    1.947990    3.611786    2.272419    0.000000
 H     :    2.346689    2.793254    3.351913    1.407817    3.024244    3.585856

            H     
            ------
 H     :    0.000000


  Max    interatomic separation is    3.6118 Angstrom (    6.8253 Bohr)
  between atoms    6 and    4, "H     " and "S     ".

  Min HX interatomic separation is    1.0453 Angstrom (    1.9754 Bohr)

  Min YX interatomic separation is    1.3570 Angstrom (    2.5644 Bohr)


  Bond distances (Angstrom):
  --------------------------

                  atom 1     atom 2       distance
                  ------     ------       --------
  bond distance:  N          C            1.443749
  bond distance:  O          C            1.357003
  bond distance:  O          N            1.385240
  bond distance:  S          C            1.814718
  bond distance:  H          C            1.111510
  bond distance:  H          N            1.045322
  bond distance:  H          S            1.407817


  Bond angles (degrees):
  ----------------------

                  atom 1     atom 2     atom 3         angle
                  ------     ------     ------         -----
  bond angle:     N          C          O             59.189
  bond angle:     N          C          S            112.426
  bond angle:     N          C          H            115.986
  bond angle:     O          C          S            111.479
  bond angle:     O          C          H            114.537
  bond angle:     S          C          H            125.096
  bond angle:     C          N          O             57.284
  bond angle:     C          N          H            108.865
  bond angle:     O          N          H            105.688
  bond angle:     C          O          N             63.527
  bond angle:     C          S          H             92.600




 CPU time statistics for ABACUS
 ------------------------------




  Total CPU  time used in ABACUS:   0.01 seconds
  Total wall time used in ABACUS:   0.01 seconds


                   .-------------------------------------------.
                   | End of Static Property Section (ABACUS) - |
                   `-------------------------------------------'

  Total CPU  time used in DALTON:   2.29 seconds
  Total wall time used in DALTON:   2.14 seconds

 
     Date and time (Linux)  : Wed Feb  3 15:11:45 2016
     Host name              : copper                                  
