 argument  1 = nwchem.in
                                         
                                         


              Northwest Computational Chemistry Package (NWChem) 6.8
              ------------------------------------------------------


                    Environmental Molecular Sciences Laboratory
                       Pacific Northwest National Laboratory
                                Richland, WA 99352

                              Copyright (c) 1994-2017
                       Pacific Northwest National Laboratory
                            Battelle Memorial Institute

             NWChem is an open-source computational chemistry package
                        distributed under the terms of the
                      Educational Community License (ECL) 2.0
             A copy of the license is included with this distribution
                              in the LICENSE.TXT file

                                  ACKNOWLEDGMENT
                                  --------------

            This software and its documentation were developed at the
            EMSL at Pacific Northwest National Laboratory, a multiprogram
            national laboratory, operated for the U.S. Department of Energy
            by Battelle under Contract Number DE-AC05-76RL01830. Support
            for this work was provided by the Department of Energy Office
            of Biological and Environmental Research, Office of Basic
            Energy Sciences, and the Office of Advanced Scientific Computing.


           Job information
           ---------------

    hostname        = osmium
    program         = nwchem
    date            = Wed Apr 21 09:05:43 2021

    compiled        = Mon_Aug_27_23:56:01_2018
    source          = /build/nwchem-0CLMct/nwchem-6.8+47+gitdf6c956
    nwchem branch   = 6.8
    nwchem revision = v6.8-47-gdf6c956
    ga revision     = ga-5.6.3
    use scalapack   = T
    input           = nwchem.in
    prefix          = nwchem.
    data base       = ./nwchem.db
    status          = startup
    nproc           =        1
    time left       =     -1s



           Memory information
           ------------------

    heap     =   13107194 doubles =    100.0 Mbytes
    stack    =   13107199 doubles =    100.0 Mbytes
    global   =   26214400 doubles =    200.0 Mbytes (distinct from heap & stack)
    total    =   52428793 doubles =    400.0 Mbytes
    verify   = yes
    hardfail = no 


           Directory information
           ---------------------

  0 permanent = .
  0 scratch   = .




                                NWChem Input Module
                                -------------------



 Scaling coordinates for geometry "geometry" by  1.889725989
 (inverse scale =  0.529177249)

 C1  symmetry detected

          ------
          auto-z
          ------


                             Geometry "geometry" -> ""
                             -------------------------

 Output coordinates in angstroms (scale by  1.889725989 to convert to a.u.)

  No.       Tag          Charge          X              Y              Z
 ---- ---------------- ---------- -------------- -------------- --------------
    1 C                    6.0000     0.04832199    -0.32758784    -0.57790900
    2 N                    7.0000    -0.66579608    -1.26468321     0.25653663
    3 O                    8.0000     0.71728347    -1.19493321     0.22312828
    4 S                   16.0000     0.05103694     1.35100112     0.11168010
    5 H                    1.0000     0.09006344    -0.57356410    -1.66105641
    6 H                    1.0000    -0.92053266    -2.10124589    -0.31615089
    7 H                    1.0000    -1.35374884     1.43656721     0.07699707

      Atomic Mass 
      ----------- 

      C                 12.000000
      N                 14.003070
      O                 15.994910
      S                 31.972070
      H                  1.007825


 Effective nuclear repulsion energy (a.u.)     160.9971386761

            Nuclear Dipole moment (a.u.) 
            ----------------------------
        X                 Y               Z
 ---------------- ---------------- ----------------
    -0.0000000000    -0.0000000000     0.0000000000



                                Z-matrix (autoz)
                                -------- 

 Units are Angstrom for bonds and degrees for angles

      Type          Name      I     J     K     L     M      Value
      ----------- --------  ----- ----- ----- ----- ----- ----------
    1 Stretch                  1     2                       1.44375
    2 Stretch                  1     3                       1.35700
    3 Stretch                  1     4                       1.81472
    4 Stretch                  1     5                       1.11151
    5 Stretch                  2     3                       1.38524
    6 Stretch                  2     6                       1.04532
    7 Stretch                  4     7                       1.40782
    8 Bend                     1     2     3                57.28386
    9 Bend                     1     2     6               108.86484
   10 Bend                     1     3     2                63.52668
   11 Bend                     1     4     7                92.60014
   12 Bend                     2     1     3                59.18946
   13 Bend                     2     1     4               112.42622
   14 Bend                     2     1     5               115.98650
   15 Bend                     3     1     4               111.47939
   16 Bend                     3     1     5               114.53675
   17 Bend                     3     2     6               105.68780
   18 Bend                     4     1     5               125.09570
   19 Torsion                  1     3     2     6         102.63583
   20 Torsion                  2     1     4     7         -60.32400
   21 Torsion                  2     3     1     4         104.04394
   22 Torsion                  2     3     1     5        -106.77181
   23 Torsion                  3     1     2     6         -96.89932
   24 Torsion                  3     1     4     7        -124.66179
   25 Torsion                  3     2     1     4        -102.42102
   26 Torsion                  3     2     1     5         104.31226
   27 Torsion                  4     1     2     6         160.67967
   28 Torsion                  5     1     2     6           7.41294
   29 Torsion                  5     1     4     7          90.05842


            XYZ format geometry
            -------------------
     7
 geometry
 C                     0.04832199    -0.32758784    -0.57790900
 N                    -0.66579608    -1.26468321     0.25653663
 O                     0.71728347    -1.19493321     0.22312828
 S                     0.05103694     1.35100112     0.11168010
 H                     0.09006344    -0.57356410    -1.66105641
 H                    -0.92053266    -2.10124589    -0.31615089
 H                    -1.35374884     1.43656721     0.07699707

 ==============================================================================
                                internuclear distances
 ------------------------------------------------------------------------------
       center one      |      center two      | atomic units |  angstroms
 ------------------------------------------------------------------------------
    2 N                |   1 C                |     2.72829  |     1.44375
    3 O                |   1 C                |     2.56436  |     1.35700
    3 O                |   2 N                |     2.61772  |     1.38524
    4 S                |   1 C                |     3.42932  |     1.81472
    5 H                |   1 C                |     2.10045  |     1.11151
    6 H                |   2 N                |     1.97537  |     1.04532
    7 H                |   4 S                |     2.66039  |     1.40782
 ------------------------------------------------------------------------------
                         number of included internuclear distances:          7
 ==============================================================================



 ==============================================================================
                                 internuclear angles
 ------------------------------------------------------------------------------
        center 1       |       center 2       |       center 3       |  degrees
 ------------------------------------------------------------------------------
    1 C                |   3 O                |   2 N                |    63.53
    2 N                |   1 C                |   4 S                |   112.43
    2 N                |   1 C                |   5 H                |   115.99
    3 O                |   1 C                |   4 S                |   111.48
    3 O                |   1 C                |   5 H                |   114.54
    4 S                |   1 C                |   5 H                |   125.10
    2 N                |   3 O                |   1 C                |    63.53
    1 C                |   2 N                |   6 H                |   108.86
    3 O                |   2 N                |   6 H                |   105.69
    1 C                |   3 O                |   2 N                |    63.53
    1 C                |   4 S                |   7 H                |    92.60
 ------------------------------------------------------------------------------
                            number of included internuclear angles:         11
 ==============================================================================





 Summary of "ao basis" -> "" (cartesian)
 ------------------------------------------------------------------------------
       Tag                 Description            Shells   Functions and Types
 ---------------- ------------------------------  ------  ---------------------
 *                           sto-3g                   on all atoms 


                      Basis "ao basis" -> "ao basis" (cartesian)
                      -----
  C (Carbon)
  ----------
            Exponent  Coefficients 
       -------------- ---------------------------------------------------------
  1 S  7.16168370E+01  0.154329
  1 S  1.30450960E+01  0.535328
  1 S  3.53051220E+00  0.444635

  2 S  2.94124940E+00 -0.099967
  2 S  6.83483100E-01  0.399513
  2 S  2.22289900E-01  0.700115

  3 P  2.94124940E+00  0.155916
  3 P  6.83483100E-01  0.607684
  3 P  2.22289900E-01  0.391957

  N (Nitrogen)
  ------------
            Exponent  Coefficients 
       -------------- ---------------------------------------------------------
  1 S  9.91061690E+01  0.154329
  1 S  1.80523120E+01  0.535328
  1 S  4.88566020E+00  0.444635

  2 S  3.78045590E+00 -0.099967
  2 S  8.78496600E-01  0.399513
  2 S  2.85714400E-01  0.700115

  3 P  3.78045590E+00  0.155916
  3 P  8.78496600E-01  0.607684
  3 P  2.85714400E-01  0.391957

  O (Oxygen)
  ----------
            Exponent  Coefficients 
       -------------- ---------------------------------------------------------
  1 S  1.30709320E+02  0.154329
  1 S  2.38088610E+01  0.535328
  1 S  6.44360830E+00  0.444635

  2 S  5.03315130E+00 -0.099967
  2 S  1.16959610E+00  0.399513
  2 S  3.80389000E-01  0.700115

  3 P  5.03315130E+00  0.155916
  3 P  1.16959610E+00  0.607684
  3 P  3.80389000E-01  0.391957

  S (Sulphur)
  -----------
            Exponent  Coefficients 
       -------------- ---------------------------------------------------------
  1 S  5.33125736E+02  0.154329
  1 S  9.71095183E+01  0.535328
  1 S  2.62816254E+01  0.444635

  2 S  3.33297517E+01 -0.099967
  2 S  7.74511752E+00  0.399513
  2 S  2.51895260E+00  0.700115

  3 P  3.33297517E+01  0.155916
  3 P  7.74511752E+00  0.607684
  3 P  2.51895260E+00  0.391957

  4 S  2.02919427E+00 -0.219620
  4 S  5.66140052E-01  0.225595
  4 S  2.21583379E-01  0.900398

  5 P  2.02919427E+00  0.010588
  5 P  5.66140052E-01  0.595167
  5 P  2.21583379E-01  0.462001

  H (Hydrogen)
  ------------
            Exponent  Coefficients 
       -------------- ---------------------------------------------------------
  1 S  3.42525091E+00  0.154329
  1 S  6.23913730E-01  0.535328
  1 S  1.68855400E-01  0.444635



 Summary of "ao basis" -> "ao basis" (cartesian)
 ------------------------------------------------------------------------------
       Tag                 Description            Shells   Functions and Types
 ---------------- ------------------------------  ------  ---------------------
 C                           sto-3g                  3        5   2s1p
 N                           sto-3g                  3        5   2s1p
 O                           sto-3g                  3        5   2s1p
 S                           sto-3g                  5        9   3s2p
 H                           sto-3g                  1        1   1s


                                 NWChem SCF Module
                                 -----------------



  ao basis        = "ao basis"
  functions       =    27
  atoms           =     7
  closed shells   =    20
  open shells     =     0
  charge          =   0.00
  wavefunction    = RHF 
  input vectors   = atomic
  output vectors  = ./nwchem.movecs
  use symmetry    = F
  symmetry adapt  = F


 Summary of "ao basis" -> "ao basis" (cartesian)
 ------------------------------------------------------------------------------
       Tag                 Description            Shells   Functions and Types
 ---------------- ------------------------------  ------  ---------------------
 C                           sto-3g                  3        5   2s1p
 N                           sto-3g                  3        5   2s1p
 O                           sto-3g                  3        5   2s1p
 S                           sto-3g                  5        9   3s2p
 H                           sto-3g                  1        1   1s



 Forming initial guess at       0.0s


      Superposition of Atomic Density Guess
      -------------------------------------

 Sum of atomic energies:        -559.08414455

      Non-variational initial energy
      ------------------------------

 Total energy =    -559.556105
 1-e energy   =   -1098.135796
 2-e energy   =     377.582553
 HOMO         =      -0.109567
 LUMO         =       0.328457


 Starting SCF solution at       0.1s



 ----------------------------------------------
         Quadratically convergent ROHF

 Convergence threshold     :          1.000E-09
 Maximum no. of iterations :           30
 Final Fock-matrix accuracy:          1.000E-11
 ----------------------------------------------


              iter       energy          gnorm     gmax       time
             ----- ------------------- --------- --------- --------
                 1     -559.7075412234  9.98D-01  3.48D-01      0.1
                 2     -559.8005519039  2.00D-01  6.85D-02      0.3
                 3     -559.8056405315  1.35D-02  5.58D-03      0.4
                 4     -559.8056718417  1.11D-04  2.84D-05      0.7
                 5     -559.8056718440  9.75D-09  3.93D-09      1.1
                 6     -559.8056718440  3.97D-11  1.87D-11      1.3


       Final RHF  results 
       ------------------ 

         Total SCF energy =   -559.805671843961
      One-electron energy =  -1095.385645352552
      Two-electron energy =    374.582834832495
 Nuclear repulsion energy =    160.997138676096

        Time for solution =      1.2s


             Final eigenvalues
             -----------------

              1      
    1  -90.7763
    2  -20.3427
    3  -15.4025
    4  -11.1421
    5   -8.6748
    6   -6.3070
    7   -6.3049
    8   -6.3017
    9   -1.4754
   10   -0.9950
   11   -0.9450
   12   -0.7882
   13   -0.6849
   14   -0.5583
   15   -0.5321
   16   -0.4689
   17   -0.4035
   18   -0.3770
   19   -0.3449
   20   -0.2848
   21    0.3837
   22    0.4385
   23    0.4764
   24    0.5615
   25    0.5917
   26    0.6957
   27    0.7512

                       ROHF Final Molecular Orbital Analysis
                       -------------------------------------

 Vector    9  Occ=2.000000D+00  E=-1.475351D+00
              MO Center=  2.3D-01, -1.1D+00,  6.8D-02, r^2= 6.8D-01
   Bfn.  Coefficient  Atom+Function         Bfn.  Coefficient  Atom+Function  
  ----- ------------  ---------------      ----- ------------  ---------------
    12      0.619195  3 O  s                  7      0.332949  2 N  s          
     2      0.207687  1 C  s                 11     -0.182059  3 O  s          

 Vector   10  Occ=2.000000D+00  E=-9.950376D-01
              MO Center= -2.1D-01, -1.2D+00,  1.3D-02, r^2= 1.4D+00
   Bfn.  Coefficient  Atom+Function         Bfn.  Coefficient  Atom+Function  
  ----- ------------  ---------------      ----- ------------  ---------------
     7      0.653217  2 N  s                 12     -0.627086  3 O  s          
    26      0.192691  6 H  s                  3     -0.181363  1 C  px         
     6     -0.177609  2 N  s          

 Vector   11  Occ=2.000000D+00  E=-9.450207D-01
              MO Center= -9.0D-02,  4.8D-01, -1.5D-01, r^2= 1.9D+00
   Bfn.  Coefficient  Atom+Function         Bfn.  Coefficient  Atom+Function  
  ----- ------------  ---------------      ----- ------------  ---------------
    21      0.643602  4 S  s                  2      0.400102  1 C  s          
    17     -0.229231  4 S  s                  7     -0.206325  2 N  s          

 Vector   12  Occ=2.000000D+00  E=-7.882444D-01
              MO Center= -1.4D-02, -1.9D-01, -3.9D-01, r^2= 2.6D+00
   Bfn.  Coefficient  Atom+Function         Bfn.  Coefficient  Atom+Function  
  ----- ------------  ---------------      ----- ------------  ---------------
     2      0.494597  1 C  s                 21     -0.478381  4 S  s          
    25      0.273323  5 H  s                 12     -0.234258  3 O  s          
    15     -0.231330  3 O  pz                 7     -0.213143  2 N  s          
     5     -0.166134  1 C  pz                17      0.154958  4 S  s          
    10     -0.151427  2 N  pz                27     -0.150602  7 H  s          

 Vector   13  Occ=2.000000D+00  E=-6.849324D-01
              MO Center= -6.3D-02, -9.1D-01, -1.4D-01, r^2= 2.0D+00
   Bfn.  Coefficient  Atom+Function         Bfn.  Coefficient  Atom+Function  
  ----- ------------  ---------------      ----- ------------  ---------------
     9      0.384039  2 N  py                 5      0.349377  1 C  pz         
    14      0.318444  3 O  py                26     -0.271923  6 H  s          
    12     -0.266631  3 O  s                 21     -0.221382  4 S  s          
    13     -0.205952  3 O  px                25     -0.191799  5 H  s          
    15      0.156629  3 O  pz         

 Vector   14  Occ=2.000000D+00  E=-5.582726D-01
              MO Center= -8.1D-02, -3.4D-01,  8.5D-02, r^2= 2.6D+00
   Bfn.  Coefficient  Atom+Function         Bfn.  Coefficient  Atom+Function  
  ----- ------------  ---------------      ----- ------------  ---------------
     4      0.374295  1 C  py                15      0.360492  3 O  pz         
     8     -0.292361  2 N  px                13      0.287182  3 O  px         
    27     -0.245722  7 H  s                 23     -0.225693  4 S  py         
    10      0.219839  2 N  pz                 7      0.206487  2 N  s          
    14      0.182743  3 O  py                22      0.181432  4 S  px         

 Vector   15  Occ=2.000000D+00  E=-5.320930D-01
              MO Center=  7.1D-02, -8.8D-01, -2.2D-01, r^2= 1.8D+00
   Bfn.  Coefficient  Atom+Function         Bfn.  Coefficient  Atom+Function  
  ----- ------------  ---------------      ----- ------------  ---------------
    15      0.385280  3 O  pz                14     -0.335242  3 O  py         
     5     -0.324626  1 C  pz                25      0.294175  5 H  s          
     3     -0.274982  1 C  px                26     -0.259635  6 H  s          
    10      0.250537  2 N  pz                 8      0.238696  2 N  px         

 Vector   16  Occ=2.000000D+00  E=-4.688873D-01
              MO Center= -5.7D-02, -8.3D-02,  9.5D-02, r^2= 2.8D+00
   Bfn.  Coefficient  Atom+Function         Bfn.  Coefficient  Atom+Function  
  ----- ------------  ---------------      ----- ------------  ---------------
    13      0.444338  3 O  px                22     -0.387858  4 S  px         
     8     -0.359597  2 N  px                27      0.351457  7 H  s          
    21     -0.290134  4 S  s                  9      0.262648  2 N  py         
    12      0.251328  3 O  s                  3     -0.223644  1 C  px         

 Vector   17  Occ=2.000000D+00  E=-4.034663D-01
              MO Center=  7.3D-03, -5.0D-01, -5.0D-02, r^2= 2.4D+00
   Bfn.  Coefficient  Atom+Function         Bfn.  Coefficient  Atom+Function  
  ----- ------------  ---------------      ----- ------------  ---------------
    14      0.527399  3 O  py                 3      0.374185  1 C  px         
    10      0.373702  2 N  pz                27      0.275551  7 H  s          
    23      0.229947  4 S  py                25      0.227601  5 H  s          
    22     -0.199084  4 S  px                 4     -0.176175  1 C  py         
    13     -0.169850  3 O  px                 7      0.160848  2 N  s          

 Vector   18  Occ=2.000000D+00  E=-3.769661D-01
              MO Center= -7.5D-02,  5.7D-01,  1.1D-01, r^2= 2.8D+00
   Bfn.  Coefficient  Atom+Function         Bfn.  Coefficient  Atom+Function  
  ----- ------------  ---------------      ----- ------------  ---------------
    21      0.435816  4 S  s                 22      0.388179  4 S  px         
    23      0.385360  4 S  py                 9      0.315330  2 N  py         
     4     -0.293975  1 C  py                27     -0.264421  7 H  s          
    24      0.246939  4 S  pz                 7      0.233149  2 N  s          
     8     -0.224784  2 N  px                13      0.210024  3 O  px         

 Vector   19  Occ=2.000000D+00  E=-3.449045D-01
              MO Center= -2.0D-02, -1.1D+00,  2.6D-01, r^2= 1.5D+00
   Bfn.  Coefficient  Atom+Function         Bfn.  Coefficient  Atom+Function  
  ----- ------------  ---------------      ----- ------------  ---------------
    15      0.611419  3 O  pz                10     -0.519592  2 N  pz         
     7     -0.373351  2 N  s                 14      0.371515  3 O  py         
    26      0.221013  6 H  s                  8      0.207102  2 N  px         
     3     -0.202055  1 C  px         

 Vector   20  Occ=2.000000D+00  E=-2.848248D-01
              MO Center=  4.9D-02,  1.3D+00,  9.2D-02, r^2= 1.2D+00
   Bfn.  Coefficient  Atom+Function         Bfn.  Coefficient  Atom+Function  
  ----- ------------  ---------------      ----- ------------  ---------------
    24      0.918124  4 S  pz                23     -0.440389  4 S  py         
    20     -0.278013  4 S  pz         

 Vector   21  Occ=0.000000D+00  E= 3.836866D-01
              MO Center= -3.1D-01,  5.5D-01, -6.2D-02, r^2= 2.4D+00
   Bfn.  Coefficient  Atom+Function         Bfn.  Coefficient  Atom+Function  
  ----- ------------  ---------------      ----- ------------  ---------------
    27      0.604706  7 H  s                 23     -0.578697  4 S  py         
    22      0.541808  4 S  px                 2     -0.490821  1 C  s          
     3      0.425641  1 C  px                 4     -0.337562  1 C  py         
    10     -0.292938  2 N  pz                 9      0.268082  2 N  py         
    24     -0.231727  4 S  pz                15      0.224244  3 O  pz         

 Vector   22  Occ=0.000000D+00  E= 4.384915D-01
              MO Center=  7.3D-02,  9.0D-02, -2.5D-01, r^2= 1.9D+00
   Bfn.  Coefficient  Atom+Function         Bfn.  Coefficient  Atom+Function  
  ----- ------------  ---------------      ----- ------------  ---------------
    23      0.634860  4 S  py                 4      0.578765  1 C  py         
     2      0.567213  1 C  s                  3      0.498232  1 C  px         
    21     -0.458037  4 S  s                 14     -0.336983  3 O  py         
    24      0.322528  4 S  pz                10     -0.294211  2 N  pz         
    27      0.283365  7 H  s                 25     -0.270037  5 H  s          

 Vector   23  Occ=0.000000D+00  E= 4.764183D-01
              MO Center= -5.1D-01,  4.5D-01, -5.7D-03, r^2= 2.5D+00
   Bfn.  Coefficient  Atom+Function         Bfn.  Coefficient  Atom+Function  
  ----- ------------  ---------------      ----- ------------  ---------------
    22      0.764855  4 S  px                27      0.767037  7 H  s          
    21     -0.452930  4 S  s                  3     -0.448520  1 C  px         
     2      0.347944  1 C  s                  8      0.313087  2 N  px         
    13      0.292874  3 O  px                 9     -0.284248  2 N  py         
    10      0.265040  2 N  pz                18     -0.204874  4 S  px         

 Vector   24  Occ=0.000000D+00  E= 5.615164D-01
              MO Center= -2.2D-01, -1.3D+00, -1.5D-01, r^2= 1.6D+00
   Bfn.  Coefficient  Atom+Function         Bfn.  Coefficient  Atom+Function  
  ----- ------------  ---------------      ----- ------------  ---------------
     7      0.845640  2 N  s                 26     -0.716705  6 H  s          
    13      0.619196  3 O  px                 8      0.498927  2 N  px         
    12     -0.411002  3 O  s                  3      0.371645  1 C  px         
    10     -0.358165  2 N  pz                25     -0.339410  5 H  s          
     9     -0.280007  2 N  py                 5     -0.269550  1 C  pz         

 Vector   25  Occ=0.000000D+00  E= 5.916918D-01
              MO Center= -3.2D-01, -1.2D+00, -2.2D-01, r^2= 1.6D+00
   Bfn.  Coefficient  Atom+Function         Bfn.  Coefficient  Atom+Function  
  ----- ------------  ---------------      ----- ------------  ---------------
    26      0.692942  6 H  s                  8      0.625301  2 N  px         
    13      0.510388  3 O  px                25      0.507014  5 H  s          
     9      0.502266  2 N  py                 5      0.496358  1 C  pz         
    12     -0.414838  3 O  s                  3      0.302718  1 C  px         
     2     -0.214550  1 C  s                 14     -0.209125  3 O  py         

 Vector   26  Occ=0.000000D+00  E= 6.957309D-01
              MO Center= -4.3D-02, -8.7D-01, -8.3D-01, r^2= 1.5D+00
   Bfn.  Coefficient  Atom+Function         Bfn.  Coefficient  Atom+Function  
  ----- ------------  ---------------      ----- ------------  ---------------
    25     -0.921659  5 H  s                  2      0.878828  1 C  s          
     4     -0.701311  1 C  py                 7     -0.497572  2 N  s          
    26      0.499324  6 H  s                 10      0.441452  2 N  pz         
     5     -0.414691  1 C  pz                15      0.327710  3 O  pz         
    12     -0.241364  3 O  s                 14     -0.225710  3 O  py         

 Vector   27  Occ=0.000000D+00  E= 7.512142D-01
              MO Center= -5.8D-02, -7.6D-01, -2.1D-01, r^2= 1.2D+00
   Bfn.  Coefficient  Atom+Function         Bfn.  Coefficient  Atom+Function  
  ----- ------------  ---------------      ----- ------------  ---------------
     5      0.946480  1 C  pz                 9     -0.637226  2 N  py         
     2      0.575955  1 C  s                  4     -0.492062  1 C  py         
    14     -0.414923  3 O  py                26     -0.397795  6 H  s          
    25      0.388214  5 H  s                  8     -0.353807  2 N  px         
    15      0.344139  3 O  pz                12     -0.334296  3 O  s          


 center of mass
 --------------
 x =   0.05301510 y =   0.02928143 z =   0.04618863

 moments of inertia (a.u.)
 ------------------
         430.981988883777           0.000000000000           0.000000000000
           0.000000000000          93.427350866210           0.000000000000
           0.000000000000           0.000000000000         460.374380761657

  Mulliken analysis of the total density
  --------------------------------------

    Atom       Charge   Shell Charges
 -----------   ------   -------------------------------------------------------
    1 C    6     5.99   1.99  1.21  2.79
    2 N    7     7.22   2.00  1.70  3.52
    3 O    8     8.17   2.00  1.89  4.29
    4 S   16    15.84   2.00  2.00  5.96  1.86  4.03
    5 H    1     0.92   0.92
    6 H    1     0.84   0.84
    7 H    1     1.02   1.02

       Multipole analysis of the density wrt the origin
       ------------------------------------------------

     L   x y z        total         open         nuclear
     -   - - -        -----         ----         -------
     0   0 0 0     -0.000000      0.000000     40.000000

     1   1 0 0     -0.379163      0.000000     -0.000000
     1   0 1 0     -0.042081      0.000000     -0.000000
     1   0 0 1     -0.898598      0.000000      0.000000

     2   2 0 0    -20.795959      0.000000     35.577691
     2   1 1 0      0.015619      0.000000     -0.059296
     2   1 0 1      0.494194      0.000000      0.162830
     2   0 2 0    -19.553629      0.000000    211.671163
     2   0 1 1      1.979027      0.000000      3.119572
     2   0 0 2    -20.572383      0.000000     21.167082


 Task  times  cpu:        1.3s     wall:        1.3s
 Summary of allocated global arrays
-----------------------------------
  No active global arrays



                         GA Statistics for process    0
                         ------------------------------

       create   destroy   get      put      acc     scatter   gather  read&inc
calls:  448      448     3663     2357     2178        0        0      940     
number of processes/call 1.00e+00 1.00e+00 1.00e+00 0.00e+00 0.00e+00
bytes total:             2.51e+06 1.64e+06 4.58e+05 0.00e+00 0.00e+00 7.52e+03
bytes remote:            0.00e+00 0.00e+00 0.00e+00 0.00e+00 0.00e+00 0.00e+00
Max memory consumed for GA by this process: 79368 bytes
MA_summarize_allocated_blocks: starting scan ...
MA_summarize_allocated_blocks: scan completed: 0 heap blocks, 0 stack blocks
MA usage statistics:

	allocation statistics:
					      heap	     stack
					      ----	     -----
	current number of blocks	         0	         0
	maximum number of blocks	        16	        14
	current total bytes		         0	         0
	maximum total bytes		     80152	  22509784
	maximum total K-bytes		        81	     22510
	maximum total M-bytes		         1	        23


                                NWChem Input Module
                                -------------------





                                     CITATION
                                     --------
                Please cite the following reference when publishing
                           results obtained with NWChem:

                 M. Valiev, E.J. Bylaska, N. Govind, K. Kowalski,
              T.P. Straatsma, H.J.J. van Dam, D. Wang, J. Nieplocha,
                        E. Apra, T.L. Windus, W.A. de Jong
                 "NWChem: a comprehensive and scalable open-source
                  solution for large scale molecular simulations"
                      Comput. Phys. Commun. 181, 1477 (2010)
                           doi:10.1016/j.cpc.2010.04.018

                                      AUTHORS
                                      -------
          E. Apra, E. J. Bylaska, W. A. de Jong, N. Govind, K. Kowalski,
       T. P. Straatsma, M. Valiev, H. J. J. van Dam, D. Wang, T. L. Windus,
        J. Hammond, J. Autschbach, K. Bhaskaran-Nair, J. Brabec, K. Lopata,
    S. A. Fischer, S. Krishnamoorthy, M. Jacquelin, W. Ma, M. Klemm, O. Villa,
      Y. Chen, V. Anisimov, F. Aquino, S. Hirata, M. T. Hackler, V. Konjkov,
            D. Mejia-Rodriguez, T. Risthaus, M. Malagoli, A. Marenich,
   A. Otero-de-la-Roza, J. Mullin, P. Nichols, R. Peverati, J. Pittner, Y. Zhao,
        P.-D. Fan, A. Fonari, M. J. Williamson, R. J. Harrison, J. R. Rehr,
      M. Dupuis, D. Silverstein, D. M. A. Smith, J. Nieplocha, V. Tipparaju,
    M. Krishnan, B. E. Van Kuiken, A. Vazquez-Mayagoitia, L. Jensen, M. Swart,
      Q. Wu, T. Van Voorhis, A. A. Auer, M. Nooijen, L. D. Crosby, E. Brown,
      G. Cisneros, G. I. Fann, H. Fruchtl, J. Garza, K. Hirao, R. A. Kendall,
      J. A. Nichols, K. Tsemekhman, K. Wolinski, J. Anchell, D. E. Bernholdt,
      P. Borowski, T. Clark, D. Clerc, H. Dachsel, M. J. O. Deegan, K. Dyall,
    D. Elwood, E. Glendening, M. Gutowski, A. C. Hess, J. Jaffe, B. G. Johnson,
     J. Ju, R. Kobayashi, R. Kutteh, Z. Lin, R. Littlefield, X. Long, B. Meng,
      T. Nakajima, S. Niu, L. Pollack, M. Rosing, K. Glaesemann, G. Sandrone,
      M. Stave, H. Taylor, G. Thomas, J. H. van Lenthe, A. T. Wong, Z. Zhang.

 Total times  cpu:        1.3s     wall:        1.3s
