
    -----------------------------------------------------------------------
          Psi4: An Open-Source Ab Initio Electronic Structure Package
                               Psi4 1.3.2 release

                         Git: Rev {HEAD} ecbda83 


    R. M. Parrish, L. A. Burns, D. G. A. Smith, A. C. Simmonett,
    A. E. DePrince III, E. G. Hohenstein, U. Bozkaya, A. Yu. Sokolov,
    R. Di Remigio, R. M. Richard, J. F. Gonthier, A. M. James,
    H. R. McAlexander, A. Kumar, M. Saitow, X. Wang, B. P. Pritchard,
    P. Verma, H. F. Schaefer III, K. Patkowski, R. A. King, E. F. Valeev,
    F. A. Evangelista, J. M. Turney, T. D. Crawford, and C. D. Sherrill,
    J. Chem. Theory Comput. 13(7) pp 3185--3197 (2017).
    (doi: 10.1021/acs.jctc.7b00174)


                         Additional Contributions by
    P. Kraus, H. Kruse, M. H. Lechner, M. C. Schieber, R. A. Shaw,
    A. Alenaizan, R. Galvelis, Z. L. Glick, S. Lehtola, and J. P. Misiewicz

    -----------------------------------------------------------------------


    Psi4 started on: Wednesday, 21 April 2021 09:18AM

    Process ID: 808041
    Host:       osmium
    PSIDATADIR: /home/eric/.pyenv/versions/miniconda3-4.7.12/envs/cclib_berquist_37/share/psi4
    Memory:     500.0 MiB
    Threads:    1
    
  ==> Input File <==

--------------------------------------------------------------------------
molecule {
0 1
   C       -4.17279        2.71785       -0.10705
   N       -4.61074        1.36006        0.11435
   O       -3.39764        1.66807       -0.47929
   S       -3.54968        3.49993        1.40731
   H       -4.65853        3.25487       -0.95033
   H       -5.24440        1.07756       -0.66755
   H       -4.78235        3.34711        2.06997
}

set {
  basis sto-3g
  guess sad
  scf_type direct
  e_convergence 9
  d_convergence 9
}

energy('scf')
--------------------------------------------------------------------------

*** tstart() called on osmium
*** at Wed Apr 21 09:18:15 2021

   => Loading Basis Set <=

    Name: STO-3G
    Role: ORBITAL
    Keyword: BASIS
    atoms 1   entry C          line    61 file /home/eric/.pyenv/versions/miniconda3-4.7.12/envs/cclib_berquist_37/share/psi4/basis/sto-3g.gbs 
    atoms 2   entry N          line    71 file /home/eric/.pyenv/versions/miniconda3-4.7.12/envs/cclib_berquist_37/share/psi4/basis/sto-3g.gbs 
    atoms 3   entry O          line    81 file /home/eric/.pyenv/versions/miniconda3-4.7.12/envs/cclib_berquist_37/share/psi4/basis/sto-3g.gbs 
    atoms 4   entry S          line   181 file /home/eric/.pyenv/versions/miniconda3-4.7.12/envs/cclib_berquist_37/share/psi4/basis/sto-3g.gbs 
    atoms 5-7 entry H          line    19 file /home/eric/.pyenv/versions/miniconda3-4.7.12/envs/cclib_berquist_37/share/psi4/basis/sto-3g.gbs 


         ---------------------------------------------------------
                                   SCF
               by Justin Turney, Rob Parrish, Andy Simmonett
                          and Daniel G. A. Smith
                              RHF Reference
                        1 Threads,    500 MiB Core
         ---------------------------------------------------------

  ==> Geometry <==

    Molecular point group: c1
    Full point group: C1

    Geometry (in Angstrom), charge = 0, multiplicity = 1:

       Center              X                  Y                   Z               Mass       
    ------------   -----------------  -----------------  -----------------  -----------------
         C           -0.311767253818     0.146471740213    -0.601905730933    12.000000000000
         N           -0.749717253818    -1.211318259787    -0.380505730933    14.003074004430
         O            0.463382746182    -0.903308259787    -0.974145730933    15.994914619570
         S            0.311342746182     0.928551740213     0.912454269067    31.972071174400
         H           -0.797507253818     0.683491740213    -1.445185730933     1.007825032230
         H           -1.383377253818    -1.493818259787    -1.162405730933     1.007825032230
         H           -0.921327253818     0.775731740213     1.575114269067     1.007825032230

  Running in c1 symmetry.

  Rotational constants: A =      0.64435  B =      0.13968  C =      0.13076 [cm^-1]
  Rotational constants: A =  19317.04796  B =   4187.50841  C =   3920.15877 [MHz]
  Nuclear repulsion =  160.997127014650431

  Charge       = 0
  Multiplicity = 1
  Electrons    = 40
  Nalpha       = 20
  Nbeta        = 20

  ==> Algorithm <==

  SCF Algorithm Type is DIRECT.
  DIIS enabled.
  MOM disabled.
  Fractional occupation disabled.
  Guess Type is SAD.
  Energy threshold   = 1.00e-09
  Density threshold  = 1.00e-09
  Integral threshold = 0.00e+00

  ==> Primary Basis <==

  Basis Set: STO-3G
    Blend: STO-3G
    Number of shells: 17
    Number of basis function: 27
    Number of Cartesian functions: 27
    Spherical Harmonics?: true
    Max angular momentum: 1

   => Loading Basis Set <=

    Name: (STO-3G AUX)
    Role: JKFIT
    Keyword: DF_BASIS_SCF
    atoms 1   entry C          line   203 file /home/eric/.pyenv/versions/miniconda3-4.7.12/envs/cclib_berquist_37/share/psi4/basis/def2-svp-jkfit.gbs 
    atoms 2   entry N          line   263 file /home/eric/.pyenv/versions/miniconda3-4.7.12/envs/cclib_berquist_37/share/psi4/basis/def2-svp-jkfit.gbs 
    atoms 3   entry O          line   323 file /home/eric/.pyenv/versions/miniconda3-4.7.12/envs/cclib_berquist_37/share/psi4/basis/def2-svp-jkfit.gbs 
    atoms 4   entry S          line   908 file /home/eric/.pyenv/versions/miniconda3-4.7.12/envs/cclib_berquist_37/share/psi4/basis/def2-svp-jkfit.gbs 
    atoms 5-7 entry H          line    23 file /home/eric/.pyenv/versions/miniconda3-4.7.12/envs/cclib_berquist_37/share/psi4/basis/def2-svp-jkfit.gbs 

  Starting with a DF guess...

  ==> Pre-Iterations <==

   -------------------------------------------------------
    Irrep   Nso     Nmo     Nalpha   Nbeta   Ndocc  Nsocc
   -------------------------------------------------------
     A         27      27       0       0       0       0
   -------------------------------------------------------
    Total      27      27      20      20      20       0
   -------------------------------------------------------

  ==> Integral Setup <==

  DFHelper Memory: AOs need 0.004 GiB; user supplied 0.366 GiB. Using in-core AOs.

  ==> MemDFJK: Density-Fitted J/K Matrices <==

    J tasked:                   Yes
    K tasked:                   Yes
    wK tasked:                   No
    OpenMP threads:               1
    Memory [MiB]:               375
    Algorithm:                 Core
    Schwarz Cutoff:           1E-12
    Mask sparsity (%):       3.0178
    Fitting Condition:        1E-10

   => Auxiliary Basis Set <=

  Basis Set: (STO-3G AUX)
    Blend: DEF2-SVP-JKFIT
    Number of shells: 131
    Number of basis function: 411
    Number of Cartesian functions: 490
    Spherical Harmonics?: true
    Max angular momentum: 4

  Minimum eigenvalue in the overlap matrix is 2.5374510464E-01.
  Using Symmetric Orthogonalization.

  SCF Guess: Superposition of Atomic Densities via on-the-fly atomic UHF.

  ==> Iterations <==

                           Total Energy        Delta E     RMS |[F,P]|

   @DF-RHF iter SAD:  -557.50590690572164   -5.57506e+02   0.00000e+00 
   @DF-RHF iter   1:  -559.68307303175595   -2.17717e+00   1.48726e-02 DIIS
   @DF-RHF iter   2:  -559.79258600358844   -1.09513e-01   5.49835e-03 DIIS
   @DF-RHF iter   3:  -559.80569114086632   -1.31051e-02   7.41629e-04 DIIS
   @DF-RHF iter   4:  -559.80613234122927   -4.41200e-04   1.10949e-04 DIIS
   @DF-RHF iter   5:  -559.80614389860364   -1.15574e-05   3.09262e-05 DIIS
   @DF-RHF iter   6:  -559.80614510796477   -1.20936e-06   9.29874e-06 DIIS
   @DF-RHF iter   7:  -559.80614521730877   -1.09344e-07   3.36371e-06 DIIS
   @DF-RHF iter   8:  -559.80614523025463   -1.29459e-08   9.90414e-07 DIIS
   @DF-RHF iter   9:  -559.80614523163479   -1.38016e-09   2.15640e-07 DIIS
   @DF-RHF iter  10:  -559.80614523170061   -6.58247e-11   4.05250e-08 DIIS
   @DF-RHF iter  11:  -559.80614523170277   -2.16005e-12   7.38267e-09 DIIS
   @DF-RHF iter  12:  -559.80614523170254    2.27374e-13   2.21339e-09 DIIS
   @DF-RHF iter  13:  -559.80614523170379   -1.25056e-12   4.81317e-10 DIIS

  DF guess converged.

  ==> DirectJK: Integral-Direct J/K Matrices <==

    J tasked:                  Yes
    K tasked:                  Yes
    wK tasked:                  No
    Integrals threads:           1
    Schwarz Cutoff:          1E-12

   @RHF iter  14:  -559.80567185895893   -5.59806e+02   3.55777e-06 DIIS
   @RHF iter  15:  -559.80567186502560   -6.06667e-09   5.57030e-07 DIIS
   @RHF iter  16:  -559.80567186525764   -2.32035e-10   1.59247e-07 DIIS
   @RHF iter  17:  -559.80567186527969   -2.20552e-11   4.73698e-08 DIIS
   @RHF iter  18:  -559.80567186528197   -2.27374e-12   1.39368e-08 DIIS
   @RHF iter  19:  -559.80567186528208   -1.13687e-13   2.70775e-09 DIIS
   @RHF iter  20:  -559.80567186528128    7.95808e-13   8.00193e-10 DIIS
  Energy and wave function converged.


  ==> Post-Iterations <==

    Orbital Energies [Eh]
    ---------------------

    Doubly Occupied:                                                      

       1A    -90.776263     2A    -20.342746     3A    -15.402478  
       4A    -11.142096     5A     -8.674792     6A     -6.306984  
       7A     -6.304924     8A     -6.301706     9A     -1.475351  
      10A     -0.995038    11A     -0.945021    12A     -0.788244  
      13A     -0.684932    14A     -0.558273    15A     -0.532093  
      16A     -0.468887    17A     -0.403466    18A     -0.376966  
      19A     -0.344904    20A     -0.284825  

    Virtual:                                                              

      21A      0.383687    22A      0.438491    23A      0.476418  
      24A      0.561516    25A      0.591692    26A      0.695731  
      27A      0.751214  

    Final Occupation by Irrep:
              A 
    DOCC [    20 ]

  @RHF Final Energy:  -559.80567186528128

   => Energetics <=

    Nuclear Repulsion Energy =            160.9971270146504310
    One-Electron Energy =               -1095.3856231263941936
    Two-Electron Energy =                 374.5828242464624509
    Total Energy =                       -559.8056718652812833

Computation Completed


Properties will be evaluated at   0.000000,   0.000000,   0.000000 [a0]

Properties computed using the SCF density matrix

  Nuclear Dipole Moment: [e a0]
     X:    -2.8956      Y:    -0.0088      Z:    -0.9474

  Electronic Dipole Moment: [e a0]
     X:     2.1599      Y:     0.5031      Z:     0.5383

  Dipole Moment: [e a0]
     X:    -0.7357      Y:     0.4944      Z:    -0.4091     Total:     0.9762

  Dipole Moment: [D]
     X:    -1.8699      Y:     1.2566      Z:    -1.0399     Total:     2.4813


*** tstop() called on osmium at Wed Apr 21 09:18:16 2021
Module time:
	user time   =       1.05 seconds =       0.02 minutes
	system time =       0.01 seconds =       0.00 minutes
	total time  =          1 seconds =       0.02 minutes
Total time:
	user time   =       1.05 seconds =       0.02 minutes
	system time =       0.01 seconds =       0.00 minutes
	total time  =          1 seconds =       0.02 minutes

    Psi4 stopped on: Wednesday, 21 April 2021 09:18AM
    Psi4 wall time for execution: 0:00:01.12

*** Psi4 exiting successfully. Buy a developer a beer!
