                  Welcome to Q-Chem
     A Quantum Leap Into The Future Of Chemistry


 Q-Chem 5.3 (devel), Q-Chem, Inc., Pleasanton, CA (2020)

 Yihan Shao,  Zhengting Gan,  E. Epifanovsky,  A. T. B. Gilbert,  M. Wormit,  
 J. Kussmann,  A. W. Lange,  A. Behn,  Jia Deng,  Xintian Feng,  D. Ghosh,  
 M. Goldey,  P. R. Horn,  L. D. Jacobson,  I. Kaliman,  T. Kus,  A. Landau,  
 Jie Liu,  E. I. Proynov,  R. M. Richard,  R. P. Steele,  E. J. Sundstrom,  
 H. L. Woodcock III,  P. M. Zimmerman,  D. Zuev,  B. Alam,  B. Albrecht,  
 A. Aldossary,  E. Alguire,  S. A. Baeppler,  D. Barton,  Z. Benda,  
 Y. A. Bernard,  E. J. Berquist,  K. B. Bravaya,  H. Burton,  K. Carter-Fenk,  
 D. Casanova,  Chun-Min Chang,  Yunqing Chen,  A. Chien,  K. D. Closser,  
 M. P. Coons,  S. Coriani,  S. Dasgupta,  A. L. Dempwolff,  M. Diedenhofen,  
 Hainam Do,  R. G. Edgar,  Po-Tung Fang,  S. Faraji,  S. Fatehi,  
 Qingguo Feng,  J. Fosso-Tande,  J. Gayvert,  Qinghui Ge,  A. Ghysels,  
 G. Gidofalvi,  J. Gomes,  J. Gonthier,  S. Gulania,  A. Gunina,  D. Hait,  
 M. W. D. Hanson-Heine,  S. Hammes-Schiffer,  P. H. P. Harbach,  
 A. W. Hauser,  M. F. Herbst,  J. E. Herr,  E. G. Hohenstein,  Z. C. Holden,  
 S. Houck,  Kerwin Hui,  B. C. Huynh,  M. Ivanov,  T.-C. Jagau,  Hyunjun Ji,  
 B. Kaduk,  K. Khistyaev,  Jaehoon Kim,  P. Klunzinger,  K. Koh,  
 D. Kosenkov,  L. Koulias,  T. Kowalczyk,  C. M. Krauter,  A. Kunitsa,  
 Ka Un Lao,  A. Laurent,  K. V. Lawler,  Joonho Lee,  D. Lefrancois,  
 S. Lehtola,  D. S. Levine,  Yi-Pei Li,  You-Sheng Lin,  Fenglai Liu,  
 Kuan-Yu Liu,  E. Livshits,  M. Loipersberger,  A. Luenser,  A. Manjanath,  
 P. Manohar,  E. Mansoor,  S. F. Manzer,  Shan-Ping Mao,  Yuezhi Mao,  
 N. Mardirossian,  A. V. Marenich,  T. Markovich,  L. A. Martinez-Martinez,  
 S. A. Maurer,  N. J. Mayhall,  S. C. McKenzie,  J.-M. Mewes,  P. Morgante,  
 A. F. Morrison,  J. W. Mullinax,  K. Nanda,  T. S. Nguyen-Beck,  
 R. Olivares-Amaya,  K. J. Oosterbaan,  J. A. Parkhill,  S. K. Paul,  
 F. Pavosevic,  Zheng Pei,  T. M. Perrine,  F. Plasser,  P. Pokhilko,  
 S. Prager,  A. Prociuk,  E. Ramos,  B. Rana,  D. R. Rehn,  F. Rob,  
 E. Rossomme,  M. Scheurer,  M. Schneider,  N. Sergueev,  S. M. Sharada,  
 S. Sharma,  W. Skomorowski,  D. W. Small,  T. Stauch,  C. J. Stein,  
 T. Stein,  Yu-Chuan Su,  S. P. Veccham,  Zhen Tao,  A. J. W. Thom,  
 A. Tkatchenko,  T. Tsuchimochi,  N. M. Tubman,  L. Vogt,  M. L. Vidal,  
 O. Vydrov,  M. A. Watson,  J. Wenzel,  M. de Wergifosse,  T. A. Wesolowski,  
 A. White,  J. Witte,  A. Yamada,  Jun Yang,  K. Yao,  S. Yeganeh,  
 S. R. Yost,  Zhi-Qiang You,  A. Zech,  Igor Ying Zhang,  Xing Zhang,  
 Yan Zhao,  Ying Zhu,  B. R. Brooks,  G. K. L. Chan,  C. J. Cramer,  
 M. S. Gordon,  W. J. Hehre,  A. Klamt,  M. W. Schmidt,  C. D. Sherrill,  
 D. G. Truhlar,  A. Aspuru-Guzik,  R. Baer,  A. T. Bell,  N. A. Besley,  
 Jeng-Da Chai,  A. E. DePrince, III,  R. A. DiStasio Jr.,  A. Dreuw,  
 B. D. Dunietz,  T. R. Furlani,  Chao-Ping Hsu,  Yousung Jung,  Jing Kong,  
 D. S. Lambrecht,  WanZhen Liang,  C. Ochsenfeld,  V. A. Rassolov,  
 L. V. Slipchenko,  J. E. Subotnik,  T. Van Voorhis,  J. M. Herbert,  
 A. I. Krylov,  P. M. W. Gill,  M. Head-Gordon

 Contributors to earlier versions of Q-Chem not listed above: 
 R. D. Adamson,  B. Austin,  J. Baker,  G. J. O. Beran,  K. Brandhorst,  
 S. T. Brown,  E. F. C. Byrd,  A. K. Chakraborty,  C.-L. Cheng,  
 Siu Hung Chien,  D. M. Chipman,  D. L. Crittenden,  H. Dachsel,  
 R. J. Doerksen,  A. D. Dutoi,  L. Fusti-Molnar,  W. A. Goddard III,  
 A. Golubeva-Zadorozhnaya,  S. R. Gwaltney,  G. Hawkins,  A. Heyden,  
 S. Hirata,  G. Kedziora,  F. J. Keil,  C. Kelley,  Jihan Kim,  R. A. King,  
 R. Z. Khaliullin,  P. P. Korambath,  W. Kurlancheek,  A. M. Lee,  M. S. Lee,  
 S. V. Levchenko,  Ching Yeh Lin,  D. Liotard,  R. C. Lochan,  I. Lotan,  
 P. E. Maslen,  N. Nair,  D. P. O'Neill,  D. Neuhauser,  E. Neuscamman,  
 C. M. Oana,  R. Olson,  B. Peters,  R. Peverati,  P. A. Pieniazek,  
 Y. M. Rhee,  J. Ritchie,  M. A. Rohrdanz,  E. Rosta,  N. J. Russ,  
 H. F. Schaefer III,  N. E. Schultz,  N. Shenvi,  A. C. Simmonett,  A. Sodt,  
 D. Stuck,  K. S. Thanthiriwatte,  V. Vanovschi,  Tao Wang,  A. Warshel,  
 C. F. Williams,  Q. Wu,  X. Xu,  W. Zhang

 Please cite Q-Chem as follows:
 Y. Shao et al., Mol. Phys. 113, 184-215 (2015)
 DOI: 10.1080/00268976.2014.952696

 Q-Chem 5.3.2 for Intel X86 EM64T Linux

 Parts of Q-Chem use Armadillo 9.800.1 (Horizon Scraper).
 http://arma.sourceforge.net/

Compilation information
-----------------------

 SVN revision             | 35976
 SVN branch               | trunk
 Last SVN revision        | 35971
 Last SVN author          | tarek.scheele
 Hostname                 | osmium
 User                     | eric
 System                   | Linux-5.8.14-arch1-1
 Processor                | x86_64
 Compiler                 | GNU
 C compiler version       | 9.3.0
 CXX compiler version     | 9.3.0
 Fortran compiler version | 9.3.0
 Configuration time       | 2021-02-25 00:06:41


 Q-Chem begins on Wed Apr 21 09:16:08 2021  

Host: osmium
0

     Scratch files written to /tmp/qchem/qchem804708//
Processing $rem in /home/eric/data/opt/apps/qchem/archive/r35971-g9.3.0-openblas/config/preferences:
Processing $rem in /home/eric/.qchemrc:

Checking the input file for inconsistencies... 	...done.

--------------------------------------------------------------
User input:
--------------------------------------------------------------
$rem
 method = hf
 basis = sto-3g
 print_general_basis = true
 xc_grid = 000128000770
 scf_convergence = 9
 thresh = 14
 scf_max_cycles = 1000
 symmetry = false
 sym_ignore = true
 cc_symmetry = false
$end

$molecule
0 1
C         -4.17279        2.71785       -0.10705
N         -4.61074        1.36006        0.11435
O         -3.39764        1.66807       -0.47929
S         -3.54968        3.49993        1.40731
H         -4.65853        3.25487       -0.95033
H         -5.24440        1.07756       -0.66755
H         -4.78235        3.34711        2.06997
$end
--------------------------------------------------------------
 ----------------------------------------------------------------
             Standard Nuclear Orientation (Angstroms)
    I     Atom           X                Y                Z
 ----------------------------------------------------------------
    1      C      -4.1727900000     2.7178500000    -0.1070500000
    2      N      -4.6107400000     1.3600600000     0.1143500000
    3      O      -3.3976400000     1.6680700000    -0.4792900000
    4      S      -3.5496800000     3.4999300000     1.4073100000
    5      H      -4.6585300000     3.2548700000    -0.9503300000
    6      H      -5.2444000000     1.0775600000    -0.6675500000
    7      H      -4.7823500000     3.3471100000     2.0699700000
 ----------------------------------------------------------------
 Nuclear Repulsion Energy =         160.99712705 hartrees
 There are       20 alpha and       20 beta electrons
 Requested basis set is STO-3G
Basis set in general basis input format:
-----------------------------------------------------------------------
$basis
C    0
S    3    1.000000
   7.16168370E+01    1.54328970E-01 
   1.30450960E+01    5.35328140E-01 
   3.53051220E+00    4.44634540E-01 
SP   3    1.000000
   2.94124940E+00   -9.99672300E-02   1.55916270E-01 
   6.83483100E-01    3.99512830E-01   6.07683720E-01 
   2.22289900E-01    7.00115470E-01   3.91957390E-01 
****
N    0
S    3    1.000000
   9.91061690E+01    1.54328970E-01 
   1.80523120E+01    5.35328140E-01 
   4.88566020E+00    4.44634540E-01 
SP   3    1.000000
   3.78045590E+00   -9.99672300E-02   1.55916270E-01 
   8.78496600E-01    3.99512830E-01   6.07683720E-01 
   2.85714400E-01    7.00115470E-01   3.91957390E-01 
****
O    0
S    3    1.000000
   1.30709320E+02    1.54328970E-01 
   2.38088610E+01    5.35328140E-01 
   6.44360830E+00    4.44634540E-01 
SP   3    1.000000
   5.03315130E+00   -9.99672300E-02   1.55916270E-01 
   1.16959610E+00    3.99512830E-01   6.07683720E-01 
   3.80389000E-01    7.00115470E-01   3.91957390E-01 
****
S    0
S    3    1.000000
   5.33125736E+02    1.54328970E-01 
   9.71095183E+01    5.35328140E-01 
   2.62816254E+01    4.44634540E-01 
SP   3    1.000000
   3.33297517E+01   -9.99672300E-02   1.55916280E-01 
   7.74511752E+00    3.99512830E-01   6.07683720E-01 
   2.51895260E+00    7.00115470E-01   3.91957390E-01 
SP   3    1.000000
   2.02919427E+00   -2.19620370E-01   1.05876000E-02 
   5.66140050E-01    2.25595430E-01   5.95167010E-01 
   2.21583380E-01    9.00398430E-01   4.62001010E-01 
****
H    0
S    3    1.000000
   3.42525091E+00    1.54328970E-01 
   6.23913730E-01    5.35328140E-01 
   1.68855400E-01    4.44634540E-01 
****
H    0
S    3    1.000000
   3.42525091E+00    1.54328970E-01 
   6.23913730E-01    5.35328140E-01 
   1.68855400E-01    4.44634540E-01 
****
H    0
S    3    1.000000
   3.42525091E+00    1.54328970E-01 
   6.23913730E-01    5.35328140E-01 
   1.68855400E-01    4.44634540E-01 
****
$end
-----------------------------------------------------------------------
 There are 12 shells and 27 basis functions

 Total QAlloc Memory Limit   2000 MB
 Mega-Array Size       188 MB
 MEM_STATIC part       192 MB

                       Distance Matrix (Angstroms)
             C (  1)   N (  2)   O (  3)   S (  4)   H (  5)   H (  6)
   N (  2)  1.443749
   O (  3)  1.357003  1.385240
   S (  4)  1.814718  2.715997  2.634025
   H (  5)  1.111510  2.173967  2.080783  2.616882
   H (  6)  2.037906  1.045322  1.947990  3.611786  2.272419
   H (  7)  2.346689  2.793254  3.351913  1.407817  3.024244  3.585856


 A cutoff of  1.0D-14 yielded     73 shell pairs
 There are       397 function pairs
 Smallest overlap matrix eigenvalue = 2.54E-01

 Scale SEOQF with 1.000000e-01/1.000000e-01/1.000000e-01

 Standard Electronic Orientation quadrupole field applied
 Nucleus-field energy     =     0.0000000392 hartrees
 Guess from superposition of atomic densities
 Warning:  Energy on first SCF cycle will be non-variational
 SAD guess density has 40.000000 electrons

 -----------------------------------------------------------------------
  General SCF calculation program by
  Eric Jon Sundstrom, Paul Horn, Yuezhi Mao, Dmitri Zuev, Alec White,
  David Stuck, Shaama M.S., Shane Yost, Joonho Lee, David Small,
  Daniel Levine, Susi Lehtola, Hugh Burton, Evgeny Epifanovsky,
  Bang C. Huynh
 -----------------------------------------------------------------------
 Hartree-Fock
 A restricted SCF calculation will be
 performed using DIIS
 SCF converges when DIIS error is below 1.0e-09
 ---------------------------------------
  Cycle       Energy         DIIS error
 ---------------------------------------
    1    -559.5561092232      2.02e-01  
    2    -559.7075527559      2.61e-02  
    3    -559.7935501089      1.03e-02  
    4    -559.8050831555      1.47e-03  
    5    -559.8056411230      3.00e-04  
    6    -559.8056688036      9.14e-05  
    7    -559.8056717462      1.97e-05  
    8    -559.8056718866      5.97e-06  
    9    -559.8056719004      1.42e-06  
   10    -559.8056719011      4.75e-07  
   11    -559.8056719011      8.52e-08  
   12    -559.8056719011      1.61e-08  
   13    -559.8056719011      3.41e-09  
   14    -559.8056719011      6.08e-10  Convergence criterion met
 ---------------------------------------
 SCF time:   CPU 0.15s  wall 1.00s 
 SCF   energy in the final basis set =     -559.8056719011
 Total energy in the final basis set =     -559.8056719011

 --------------------------------------------------------------

                    Orbital Energies (a.u.)
 --------------------------------------------------------------

 Alpha MOs
 -- Occupied --
-90.7763 -20.3427 -15.4025 -11.1421  -8.6748  -6.3070  -6.3049  -6.3017
 -1.4754  -0.9950  -0.9450  -0.7882  -0.6849  -0.5583  -0.5321  -0.4689
 -0.4035  -0.3770  -0.3449  -0.2848
 -- Virtual --
  0.3837   0.4385   0.4764   0.5615   0.5917   0.6957   0.7512
 --------------------------------------------------------------

          Ground-State Mulliken Net Atomic Charges

     Atom                 Charge (a.u.)
  ----------------------------------------
      1 C                     0.009020
      2 N                    -0.218544
      3 O                    -0.169453
      4 S                     0.160074
      5 H                     0.076703
      6 H                     0.163483
      7 H                    -0.021285
  ----------------------------------------
  Sum of atomic charges =     0.000000

 -----------------------------------------------------------------
                    Cartesian Multipole Moments
 -----------------------------------------------------------------
    Charge (ESU x 10^10)
                -0.0000
    Dipole Moment (Debye)
         X      -1.8699      Y       1.2566      Z      -1.0399
       Tot       2.4813
    Quadrupole Moments (Debye-Ang)
        XX     -12.3078     XY      -9.3521     YY     -23.1880
        XZ       4.7478     YZ      -1.0657     ZZ     -26.4046
    Octopole Moments (Debye-Ang^2)
       XXX     230.3369    XXY     -16.3091    XYY      79.2185
       YYY    -206.5642    XXZ     -36.6082    XYZ       2.4939
       YYZ     -15.7095    XZZ     100.5936    YZZ     -66.5355
       ZZZ     -38.0358
    Hexadecapole Moments (Debye-Ang^3)
      XXXX   -2089.2567   XXXY     530.2652   XXYY    -484.0115
      XYYY     757.5706   YYYY   -1282.3409   XXXZ     263.5506
      XXYZ     -57.3065   XYYZ      47.4813   YYYZ    -165.1857
      XXZZ    -423.3844   XYZZ     246.4673   YYZZ    -223.3366
      XZZZ     134.7706   YZZZ    -142.3841   ZZZZ    -171.3338
 -----------------------------------------------------------------
Archival summary:
1\1\osmium\SP\HF\STO-3G\11113\eric\WedApr2109:16:092021WedApr2109:16:092021\0\\#,HF,STO-3G,\\0,1\S\H,1,1.40782\C,1,1.81472,2,92.6001\H,3,1.11151,1,125.096,2,90.0584,0\O,3,1.357,1,111.479,2,-124.662,0\N,5,1.38524,3,63.5267,1,104.044,0\H,6,1.04532,5,105.688,3,102.636,0\\HF=-559.805672\\@

 Total job time:  1.00s(wall), 0.26s(cpu) 
 Wed Apr 21 09:16:09 2021

        *************************************************************
        *                                                           *
        *  Thank you very much for using Q-Chem.  Have a nice day.  *
        *                                                           *
        *************************************************************


