
    -----------------------------------------------------------------------
          Psi4: An Open-Source Ab Initio Electronic Structure Package
                               Psi4 1.3.2 release

                         Git: Rev {HEAD} ecbda83 


    R. M. Parrish, L. A. Burns, D. G. A. Smith, A. C. Simmonett,
    A. E. DePrince III, E. G. Hohenstein, U. Bozkaya, A. Yu. Sokolov,
    R. Di Remigio, R. M. Richard, J. F. Gonthier, A. M. James,
    H. R. McAlexander, A. Kumar, M. Saitow, X. Wang, B. P. Pritchard,
    P. Verma, H. F. Schaefer III, K. Patkowski, R. A. King, E. F. Valeev,
    F. A. Evangelista, J. M. Turney, T. D. Crawford, and C. D. Sherrill,
    J. Chem. Theory Comput. 13(7) pp 3185--3197 (2017).
    (doi: 10.1021/acs.jctc.7b00174)


                         Additional Contributions by
    P. Kraus, H. Kruse, M. H. Lechner, M. C. Schieber, R. A. Shaw,
    A. Alenaizan, R. Galvelis, Z. L. Glick, S. Lehtola, and J. P. Misiewicz

    -----------------------------------------------------------------------


    Psi4 started on: Wednesday, 21 April 2021 09:18AM

    Process ID: 808174
    Host:       osmium
    PSIDATADIR: /home/eric/.pyenv/versions/miniconda3-4.7.12/envs/cclib_berquist_37/share/psi4
    Memory:     500.0 MiB
    Threads:    1
    
  ==> Input File <==

--------------------------------------------------------------------------
molecule {
0 1
   C       -4.17279        2.71785       -0.10705
   N       -4.61074        1.36006        0.11435
   O       -3.39764        1.66807       -0.47929
   S       -3.54968        3.49993        1.40731
   H       -4.65853        3.25487       -0.95033
   H       -5.24440        1.07756       -0.66755
   H       -4.78235        3.34711        2.06997
}

set {
  basis sto-3g
  guess sad
  scf_type direct
  e_convergence 10
  d_convergence 10
}

energy('ccsd(t)')
--------------------------------------------------------------------------

*** tstart() called on osmium
*** at Wed Apr 21 09:18:20 2021

   => Loading Basis Set <=

    Name: STO-3G
    Role: ORBITAL
    Keyword: BASIS
    atoms 1   entry C          line    61 file /home/eric/.pyenv/versions/miniconda3-4.7.12/envs/cclib_berquist_37/share/psi4/basis/sto-3g.gbs 
    atoms 2   entry N          line    71 file /home/eric/.pyenv/versions/miniconda3-4.7.12/envs/cclib_berquist_37/share/psi4/basis/sto-3g.gbs 
    atoms 3   entry O          line    81 file /home/eric/.pyenv/versions/miniconda3-4.7.12/envs/cclib_berquist_37/share/psi4/basis/sto-3g.gbs 
    atoms 4   entry S          line   181 file /home/eric/.pyenv/versions/miniconda3-4.7.12/envs/cclib_berquist_37/share/psi4/basis/sto-3g.gbs 
    atoms 5-7 entry H          line    19 file /home/eric/.pyenv/versions/miniconda3-4.7.12/envs/cclib_berquist_37/share/psi4/basis/sto-3g.gbs 


         ---------------------------------------------------------
                                   SCF
               by Justin Turney, Rob Parrish, Andy Simmonett
                          and Daniel G. A. Smith
                              RHF Reference
                        1 Threads,    500 MiB Core
         ---------------------------------------------------------

  ==> Geometry <==

    Molecular point group: c1
    Full point group: C1

    Geometry (in Angstrom), charge = 0, multiplicity = 1:

       Center              X                  Y                   Z               Mass       
    ------------   -----------------  -----------------  -----------------  -----------------
         C           -0.311767253818     0.146471740213    -0.601905730933    12.000000000000
         N           -0.749717253818    -1.211318259787    -0.380505730933    14.003074004430
         O            0.463382746182    -0.903308259787    -0.974145730933    15.994914619570
         S            0.311342746182     0.928551740213     0.912454269067    31.972071174400
         H           -0.797507253818     0.683491740213    -1.445185730933     1.007825032230
         H           -1.383377253818    -1.493818259787    -1.162405730933     1.007825032230
         H           -0.921327253818     0.775731740213     1.575114269067     1.007825032230

  Running in c1 symmetry.

  Rotational constants: A =      0.64435  B =      0.13968  C =      0.13076 [cm^-1]
  Rotational constants: A =  19317.04796  B =   4187.50841  C =   3920.15877 [MHz]
  Nuclear repulsion =  160.997127014650431

  Charge       = 0
  Multiplicity = 1
  Electrons    = 40
  Nalpha       = 20
  Nbeta        = 20

  ==> Algorithm <==

  SCF Algorithm Type is DIRECT.
  DIIS enabled.
  MOM disabled.
  Fractional occupation disabled.
  Guess Type is SAD.
  Energy threshold   = 1.00e-10
  Density threshold  = 1.00e-10
  Integral threshold = 0.00e+00

  ==> Primary Basis <==

  Basis Set: STO-3G
    Blend: STO-3G
    Number of shells: 17
    Number of basis function: 27
    Number of Cartesian functions: 27
    Spherical Harmonics?: true
    Max angular momentum: 1

   => Loading Basis Set <=

    Name: (STO-3G AUX)
    Role: JKFIT
    Keyword: DF_BASIS_SCF
    atoms 1   entry C          line   203 file /home/eric/.pyenv/versions/miniconda3-4.7.12/envs/cclib_berquist_37/share/psi4/basis/def2-svp-jkfit.gbs 
    atoms 2   entry N          line   263 file /home/eric/.pyenv/versions/miniconda3-4.7.12/envs/cclib_berquist_37/share/psi4/basis/def2-svp-jkfit.gbs 
    atoms 3   entry O          line   323 file /home/eric/.pyenv/versions/miniconda3-4.7.12/envs/cclib_berquist_37/share/psi4/basis/def2-svp-jkfit.gbs 
    atoms 4   entry S          line   908 file /home/eric/.pyenv/versions/miniconda3-4.7.12/envs/cclib_berquist_37/share/psi4/basis/def2-svp-jkfit.gbs 
    atoms 5-7 entry H          line    23 file /home/eric/.pyenv/versions/miniconda3-4.7.12/envs/cclib_berquist_37/share/psi4/basis/def2-svp-jkfit.gbs 

  Starting with a DF guess...

  ==> Pre-Iterations <==

   -------------------------------------------------------
    Irrep   Nso     Nmo     Nalpha   Nbeta   Ndocc  Nsocc
   -------------------------------------------------------
     A         27      27       0       0       0       0
   -------------------------------------------------------
    Total      27      27      20      20      20       0
   -------------------------------------------------------

  ==> Integral Setup <==

  DFHelper Memory: AOs need 0.004 GiB; user supplied 0.366 GiB. Using in-core AOs.

  ==> MemDFJK: Density-Fitted J/K Matrices <==

    J tasked:                   Yes
    K tasked:                   Yes
    wK tasked:                   No
    OpenMP threads:               1
    Memory [MiB]:               375
    Algorithm:                 Core
    Schwarz Cutoff:           1E-12
    Mask sparsity (%):       3.0178
    Fitting Condition:        1E-10

   => Auxiliary Basis Set <=

  Basis Set: (STO-3G AUX)
    Blend: DEF2-SVP-JKFIT
    Number of shells: 131
    Number of basis function: 411
    Number of Cartesian functions: 490
    Spherical Harmonics?: true
    Max angular momentum: 4

  Minimum eigenvalue in the overlap matrix is 2.5374510464E-01.
  Using Symmetric Orthogonalization.

  SCF Guess: Superposition of Atomic Densities via on-the-fly atomic UHF.

  ==> Iterations <==

                           Total Energy        Delta E     RMS |[F,P]|

   @DF-RHF iter SAD:  -557.50590690572164   -5.57506e+02   0.00000e+00 
   @DF-RHF iter   1:  -559.68307303175595   -2.17717e+00   1.48726e-02 DIIS
   @DF-RHF iter   2:  -559.79258600358844   -1.09513e-01   5.49835e-03 DIIS
   @DF-RHF iter   3:  -559.80569114086632   -1.31051e-02   7.41629e-04 DIIS
   @DF-RHF iter   4:  -559.80613234122927   -4.41200e-04   1.10949e-04 DIIS
   @DF-RHF iter   5:  -559.80614389860364   -1.15574e-05   3.09262e-05 DIIS
   @DF-RHF iter   6:  -559.80614510796477   -1.20936e-06   9.29874e-06 DIIS
   @DF-RHF iter   7:  -559.80614521730877   -1.09344e-07   3.36371e-06 DIIS
   @DF-RHF iter   8:  -559.80614523025463   -1.29459e-08   9.90414e-07 DIIS
   @DF-RHF iter   9:  -559.80614523163479   -1.38016e-09   2.15640e-07 DIIS
   @DF-RHF iter  10:  -559.80614523170061   -6.58247e-11   4.05250e-08 DIIS
   @DF-RHF iter  11:  -559.80614523170277   -2.16005e-12   7.38267e-09 DIIS
   @DF-RHF iter  12:  -559.80614523170254    2.27374e-13   2.21339e-09 DIIS
   @DF-RHF iter  13:  -559.80614523170379   -1.25056e-12   4.81317e-10 DIIS
   @DF-RHF iter  14:  -559.80614523170357    2.27374e-13   1.21792e-10 DIIS
   @DF-RHF iter  15:  -559.80614523170345    1.13687e-13   2.97410e-11 DIIS

  DF guess converged.

  ==> DirectJK: Integral-Direct J/K Matrices <==

    J tasked:                  Yes
    K tasked:                  Yes
    wK tasked:                  No
    Integrals threads:           1
    Schwarz Cutoff:          1E-12

   @RHF iter  16:  -559.80567185895802   -5.59806e+02   3.55778e-06 DIIS
   @RHF iter  17:  -559.80567186502515   -6.06713e-09   5.57045e-07 DIIS
   @RHF iter  18:  -559.80567186525684   -2.31694e-10   1.59254e-07 DIIS
   @RHF iter  19:  -559.80567186527992   -2.30784e-11   4.73737e-08 DIIS
   @RHF iter  20:  -559.80567186528174   -1.81899e-12   1.39387e-08 DIIS
   @RHF iter  21:  -559.80567186528219   -4.54747e-13   2.70826e-09 DIIS
   @RHF iter  22:  -559.80567186528185    3.41061e-13   8.00374e-10 DIIS
   @RHF iter  23:  -559.80567186528208   -2.27374e-13   2.20882e-10 DIIS
   @RHF iter  24:  -559.80567186528231   -2.27374e-13   8.56103e-11 DIIS
  Energy and wave function converged.


  ==> Post-Iterations <==

    Orbital Energies [Eh]
    ---------------------

    Doubly Occupied:                                                      

       1A    -90.776263     2A    -20.342746     3A    -15.402478  
       4A    -11.142096     5A     -8.674792     6A     -6.306984  
       7A     -6.304924     8A     -6.301706     9A     -1.475351  
      10A     -0.995038    11A     -0.945021    12A     -0.788244  
      13A     -0.684932    14A     -0.558273    15A     -0.532093  
      16A     -0.468887    17A     -0.403466    18A     -0.376966  
      19A     -0.344904    20A     -0.284825  

    Virtual:                                                              

      21A      0.383687    22A      0.438491    23A      0.476418  
      24A      0.561516    25A      0.591692    26A      0.695731  
      27A      0.751214  

    Final Occupation by Irrep:
              A 
    DOCC [    20 ]

  @RHF Final Energy:  -559.80567186528231

   => Energetics <=

    Nuclear Repulsion Energy =            160.9971270146504310
    One-Electron Energy =               -1095.3856231340189424
    Two-Electron Energy =                 374.5828242540861766
    Total Energy =                       -559.8056718652823065

Computation Completed


Properties will be evaluated at   0.000000,   0.000000,   0.000000 [a0]

Properties computed using the SCF density matrix

  Nuclear Dipole Moment: [e a0]
     X:    -2.8956      Y:    -0.0088      Z:    -0.9474

  Electronic Dipole Moment: [e a0]
     X:     2.1599      Y:     0.5031      Z:     0.5383

  Dipole Moment: [e a0]
     X:    -0.7357      Y:     0.4944      Z:    -0.4091     Total:     0.9762

  Dipole Moment: [D]
     X:    -1.8699      Y:     1.2566      Z:    -1.0399     Total:     2.4813


*** tstop() called on osmium at Wed Apr 21 09:18:22 2021
Module time:
	user time   =       1.15 seconds =       0.02 minutes
	system time =       0.02 seconds =       0.00 minutes
	total time  =          2 seconds =       0.03 minutes
Total time:
	user time   =       1.15 seconds =       0.02 minutes
	system time =       0.02 seconds =       0.00 minutes
	total time  =          2 seconds =       0.03 minutes
 MINTS: Wrapper to libmints.
   by Justin Turney

   Calculation information:
      Number of threads:                 1
      Number of atoms:                   7
      Number of AO shells:              17
      Number of SO shells:              17
      Number of primitives:             51
      Number of atomic orbitals:        27
      Number of basis functions:        27

      Number of irreps:                  1
      Integral cutoff                 0.00e+00
      Number of functions per irrep: [  27 ]

 OEINTS: Overlap, kinetic, potential, dipole, and quadrupole integrals
         stored in file 35.

      Computing two-electron integrals...done
      Computed 70983 non-zero two-electron integrals.
        Stored in file 33.


*** tstart() called on osmium
*** at Wed Apr 21 09:18:22 2021


	Wfn Parameters:
	--------------------
	Wavefunction         = CCSD_T
	Number of irreps     = 1
	Number of MOs        = 27
	Number of active MOs = 27
	AO-Basis             = NONE
	Semicanonical        = false
	Reference            = RHF
	Print Level          = 1

	IRREP	# MOs	# FZDC	# DOCC	# SOCC	# VIRT	# FZVR
	-----	-----	------	------	------	------	------
	 A	   27	    0	    20	    0	    7	    0
	Transforming integrals...
	IWL integrals will be deleted.
	(OO|OO)...
	Presorting SO-basis two-electron integrals.
	Sorting File: SO Ints (nn|nn) nbuckets = 1
	Transforming the one-electron integrals and constructing Fock matrices
	Starting first half-transformation.
	Sorting half-transformed integrals.
	First half integral transformation complete.
	Starting second half-transformation.
	Two-electron integral transformation complete.
	(OO|OV)...
	Starting second half-transformation.
	Two-electron integral transformation complete.
	(OO|VV)...
	Starting second half-transformation.
	Two-electron integral transformation complete.
	(OV|OO)...
	Starting first half-transformation.
	Sorting half-transformed integrals.
	First half integral transformation complete.
	Starting second half-transformation.
	Two-electron integral transformation complete.
	(OV|OV)...
	Starting second half-transformation.
	Two-electron integral transformation complete.
	(OV|VV)...
	Starting second half-transformation.
	Two-electron integral transformation complete.
	(VV|OO)...
	Starting first half-transformation.
	Sorting half-transformed integrals.
	First half integral transformation complete.
	Starting second half-transformation.
	Two-electron integral transformation complete.
	(VV|OV)...
	Starting second half-transformation.
	Two-electron integral transformation complete.
	(VV|VV)...
	Starting second half-transformation.
	Two-electron integral transformation complete.
	Frozen core energy     =      0.00000000000000

	Size of irrep 0 of <ab|cd> integrals:      0.002 (MW) /      0.019 (MB)
	Total:                                     0.002 (MW) /      0.019 (MB)

	Size of irrep 0 of <ia|bc> integrals:      0.007 (MW) /      0.055 (MB)
	Total:                                     0.007 (MW) /      0.055 (MB)

	Size of irrep 0 of tijab amplitudes:       0.020 (MW) /      0.157 (MB)
	Total:                                     0.020 (MW) /      0.157 (MB)

	Nuclear Rep. energy          =    160.99712701465043
	SCF energy                   =   -559.80567186528231
	One-electron energy          =  -1095.38562313374905
	Two-electron energy          =    374.58282425381634
	Reference energy             =   -559.80567186528219

*** tstop() called on osmium at Wed Apr 21 09:18:22 2021
Module time:
	user time   =       0.03 seconds =       0.00 minutes
	system time =       0.01 seconds =       0.00 minutes
	total time  =          0 seconds =       0.00 minutes
Total time:
	user time   =       1.24 seconds =       0.02 minutes
	system time =       0.03 seconds =       0.00 minutes
	total time  =          2 seconds =       0.03 minutes
            **************************
            *                        *
            *        CCENERGY        *
            *                        *
            **************************

    Nuclear Rep. energy (wfn)     =  160.997127014650431
    SCF energy          (wfn)     = -559.805671865282306
    Reference energy    (file100) = -559.805671865282193

    Input parameters:
    -----------------
    Wave function   =     CCSD_T
    Reference wfn   =     RHF
    Brueckner       =     No
    Memory (Mbytes) =     524.3
    Maxiter         =     50
    R_Convergence   =     1.0e-07
    E_Convergence   =     1.0e-10
    Restart         =     Yes
    DIIS            =     Yes
    AO Basis        =     NONE
    ABCD            =     NEW
    Cache Level     =     2
    Cache Type      =     LOW
    Print Level     =     1
    Num. of threads =     1
    # Amps to Print =     10
    Print MP2 Amps? =     No
    Analyze T2 Amps =     No
    Print Pair Ener =     No
    Local CC        =     No
    SCS-MP2         =     False
    SCSN-MP2        =     False
    SCS-CCSD        =     False

MP2 correlation energy -0.1731367561350374
                Solving CC Amplitude Equations
                ------------------------------
  Iter             Energy              RMS        T1Diag      D1Diag    New D1Diag    D2Diag
  ----     ---------------------    ---------   ----------  ----------  ----------   --------
     0        -0.173136756135037    0.000e+00    0.000000    0.000000    0.000000    0.130931
     1        -0.204292349710105    6.938e-02    0.004085    0.017234    0.017234    0.156577
     2        -0.218842852478802    2.604e-02    0.005746    0.022926    0.022926    0.170486
     3        -0.220023626492023    5.963e-03    0.006314    0.025800    0.025800    0.172719
     4        -0.220256867089880    2.220e-03    0.006510    0.026874    0.026874    0.173669
     5        -0.220267372796129    6.429e-04    0.006568    0.027302    0.027302    0.173847
     6        -0.220262591950395    2.158e-04    0.006584    0.027441    0.027441    0.173859
     7        -0.220261873977660    9.826e-05    0.006590    0.027513    0.027513    0.173855
     8        -0.220262279424316    3.879e-05    0.006592    0.027539    0.027539    0.173853
     9        -0.220262048129369    1.377e-05    0.006593    0.027544    0.027544    0.173852
    10        -0.220261823539875    5.694e-06    0.006592    0.027545    0.027545    0.173852
    11        -0.220261911049850    1.764e-06    0.006592    0.027545    0.027545    0.173853
    12        -0.220261983296702    6.978e-07    0.006592    0.027544    0.027544    0.173853
    13        -0.220262024070850    2.620e-07    0.006592    0.027544    0.027544    0.173853
    14        -0.220262030146266    9.315e-08    0.006592    0.027544    0.027544    0.173853
    15        -0.220262030042524    3.595e-08    0.006592    0.027544    0.027544    0.173853
    16        -0.220262029383907    1.327e-08    0.006592    0.027544    0.027544    0.173853
    17        -0.220262029370258    4.961e-09    0.006592    0.027544    0.027544    0.173853
    18        -0.220262029428942    2.323e-09    0.006592    0.027544    0.027544    0.173853

    Iterations converged.


    Largest TIA Amplitudes:
             18   3         0.0206455081
             16   1        -0.0131015522
             18   0        -0.0118833227
             16   4         0.0110434347
              9   3         0.0081277632
             12   4        -0.0080861980
             18   4         0.0073790839
              9   4        -0.0071946871
             17   2         0.0071355047
             17   3        -0.0064821165

    Largest TIjAb Amplitudes:
     16  16   0   0        -0.0409537025
     15  15   2   2        -0.0400672921
     15  15   0   0        -0.0372988161
     17  17   0   0        -0.0370048292
     17  17   1   1        -0.0351324174
     17  17   2   2        -0.0312274476
     15  17   0   2        -0.0285431376
     17  15   2   0        -0.0285431376
     11  11   5   5        -0.0272234893
     15  16   2   0         0.0269982878

    SCF energy       (wfn)                    = -559.805671865282306
    Reference energy (file100)                = -559.805671865282193

    Opposite-spin MP2 correlation energy      =   -0.148556289749659
    Same-spin MP2 correlation energy          =   -0.024580466385378
    MP2 correlation energy                    =   -0.173136756135037
      * MP2 total energy                      = -559.978808621417215

    Opposite-spin CCSD correlation energy     =   -0.198224038270087
    Same-spin CCSD correlation energy         =   -0.022037991158856
    CCSD correlation energy                   =   -0.220262029428942
      * CCSD total energy                     = -560.025933894711102

            **************************
            *                        *
            *        CCTRIPLES       *
            *                        *
            **************************


    Wave function   =    CCSD_T
    Reference wfn   =      RHF

    Nuclear Rep. energy (wfn)                =  160.997127014650431
    SCF energy          (wfn)                = -559.805671865282306
    Reference energy    (file100)            = -559.805671865282193
    CCSD energy         (file100)            =   -0.220262029428942
    Total CCSD energy   (file100)            = -560.025933894711102

    Number of ijk index combinations:             1540
    Memory available in words        :        65536000
    ~Words needed per explicit thread:            1372
    Number of threads for explicit ijk threading:    1

    MKL num_threads set to 1 for explicit threading.

    (T) energy                                =   -0.002944061406353
      * CCSD(T) total energy                  = -560.028877956117526


    Psi4 stopped on: Wednesday, 21 April 2021 09:18AM
    Psi4 wall time for execution: 0:00:01.81

*** Psi4 exiting successfully. Buy a developer a beer!
