    -----------------------------------------------------------------------
          Psi4: An Open-Source Ab Initio Electronic Structure Package
                              Psi4 0.4.90 Driver

                          Git: Rev {master} b04cdf9 dirty

    J. M. Turney, A. C. Simmonett, R. M. Parrish, E. G. Hohenstein,
    F. A. Evangelista, J. T. Fermann, B. J. Mintz, L. A. Burns, J. J. Wilke,
    M. L. Abrams, N. J. Russ, M. L. Leininger, C. L. Janssen, E. T. Seidl,
    W. D. Allen, H. F. Schaefer, R. A. King, E. F. Valeev, C. D. Sherrill,
    and T. D. Crawford, WIREs Comput. Mol. Sci. 2, 556-565 (2012)
    (doi: 10.1002/wcms.93)

                         Additional Contributions by
    A. E. DePrince, M. Saitow, U. Bozkaya, A. Yu. Sokolov
    -----------------------------------------------------------------------


    Psi4 started on: Wed Feb 24 15:11:45 2016

    Process ID:  10427
    PSI4DATADIR: /home/eric/opt/apps/python/anaconda2/share/psi4
    Memory level set to 256.000 MB

  ==> Input File <==

--------------------------------------------------------------------------
molecule {
0 1
   C       -4.17279        2.71785       -0.10705
   N       -4.61074        1.36006        0.11435
   O       -3.39764        1.66807       -0.47929
   S       -3.54968        3.49993        1.40731
   H       -4.65853        3.25487       -0.95033
   H       -5.24440        1.07756       -0.66755
   H       -4.78235        3.34711        2.06997
}

set {
  basis sto-3g
  guess sad
  scf_type direct
  e_convergence 10
  d_convergence 10
}

energy('ccsd(t)')
--------------------------------------------------------------------------

*** tstart() called on copper
*** at Wed Feb 24 15:11:45 2016


         ---------------------------------------------------------
                                   SCF
            by Justin Turney, Rob Parrish, and Andy Simmonett
                              RHF Reference
                        4 Threads,    256 MiB Core
         ---------------------------------------------------------

  ==> Geometry <==

    Molecular point group: c1
    Full point group: C1

    Geometry (in Angstrom), charge = 0, multiplicity = 1:

       Center              X                  Y                   Z               Mass       
    ------------   -----------------  -----------------  -----------------  -----------------
           C         -0.311767253112     0.146471742334    -0.601905728855    12.000000000000
           N         -0.749717253112    -1.211318257666    -0.380505728855    14.003074004780
           O          0.463382746888    -0.903308257666    -0.974145728855    15.994914619560
           S          0.311342746888     0.928551742334     0.912454271145    31.972070999000
           H         -0.797507253112     0.683491742334    -1.445185728855     1.007825032070
           H         -1.383377253112    -1.493818257666    -1.162405728855     1.007825032070
           H         -0.921327253112     0.775731742334     1.575114271145     1.007825032070

  Running in c1 symmetry.

  Rotational constants: A =      0.64435  B =      0.13968  C =      0.13076 [cm^-1]
  Rotational constants: A =  19317.04781  B =   4187.50838  C =   3920.15875 [MHz]
  Nuclear repulsion =  160.997126381830242

  Charge       = 0
  Multiplicity = 1
  Electrons    = 40
  Nalpha       = 20
  Nbeta        = 20

  ==> Algorithm <==

  SCF Algorithm Type is DIRECT.
  DIIS enabled.
  MOM disabled.
  Fractional occupation disabled.
  Guess Type is SAD.
  Energy threshold   = 1.00e-10
  Density threshold  = 1.00e-10
  Integral threshold = 0.00e+00

  ==> Primary Basis <==

  Basis Set: STO-3G
    Number of shells: 17
    Number of basis function: 27
    Number of Cartesian functions: 27
    Spherical Harmonics?: true
    Max angular momentum: 1

  ==> Pre-Iterations <==

   -------------------------------------------------------
    Irrep   Nso     Nmo     Nalpha   Nbeta   Ndocc  Nsocc
   -------------------------------------------------------
     A         27      27       0       0       0       0
   -------------------------------------------------------
    Total      27      27      20      20      20       0
   -------------------------------------------------------

  Starting with a DF guess...

  ==> Integral Setup <==

  ==> DFJK: Density-Fitted J/K Matrices <==

    J tasked:                  Yes
    K tasked:                  Yes
    wK tasked:                  No
    OpenMP threads:              4
    Integrals threads:           4
    Memory (MB):               183
    Algorithm:                Core
    Integral Cache:           NONE
    Schwarz Cutoff:          1E-12
    Fitting Condition:       1E-12

   => Auxiliary Basis Set <=

  Basis Set: 
    Number of shells: 96
    Number of basis function: 286
    Number of Cartesian functions: 333
    Spherical Harmonics?: true
    Max angular momentum: 3

  Minimum eigenvalue in the overlap matrix is 2.5374510806E-01.
  Using Symmetric Orthogonalization.
  SCF Guess: Superposition of Atomic Densities via on-the-fly atomic UHF.

  ==> Iterations <==

                           Total Energy        Delta E     RMS |[F,P]|

   @DF-RHF iter   0:  -559.62617262971526   -5.59626e+02   9.92183e-02 
   @DF-RHF iter   1:  -559.70632445215847   -8.01518e-02   1.32782e-02 
   @DF-RHF iter   2:  -559.80764865607694   -1.01324e-01   5.09350e-03 DIIS
   @DF-RHF iter   3:  -559.82138579302386   -1.37371e-02   1.34555e-03 DIIS
   @DF-RHF iter   4:  -559.82371458816738   -2.32880e-03   3.29394e-04 DIIS
   @DF-RHF iter   5:  -559.82389108777033   -1.76500e-04   1.04624e-04 DIIS
   @DF-RHF iter   6:  -559.82391029996597   -1.92122e-05   1.98315e-05 DIIS
   @DF-RHF iter   7:  -559.82391087805581   -5.78090e-07   4.69833e-06 DIIS
   @DF-RHF iter   8:  -559.82391091098634   -3.29305e-08   1.39082e-06 DIIS
   @DF-RHF iter   9:  -559.82391091392469   -2.93835e-09   4.53055e-07 DIIS
   @DF-RHF iter  10:  -559.82391091416162   -2.36923e-10   8.63963e-08 DIIS
   @DF-RHF iter  11:  -559.82391091417162   -1.00044e-11   1.90414e-08 DIIS
   @DF-RHF iter  12:  -559.82391091417139    2.27374e-13   4.48979e-09 DIIS
   @DF-RHF iter  13:  -559.82391091417185   -4.54747e-13   8.89973e-10 DIIS
   @DF-RHF iter  14:  -559.82391091417185    0.00000e+00   2.48354e-10 DIIS
   @DF-RHF iter  15:  -559.82391091417185    0.00000e+00   7.71481e-11 DIIS

  DF guess converged.

  ==> Integral Setup <==

  ==> DirectJK: Integral-Direct J/K Matrices <==

    J tasked:                  Yes
    K tasked:                  Yes
    wK tasked:                  No
    Integrals threads:           4
    Schwarz Cutoff:          1E-12

   @RHF iter  16:  -559.80567158356939    1.82393e-02   5.25016e-05 DIIS
   @RHF iter  17:  -559.80567175556234   -1.71993e-07   3.46221e-06 DIIS
   @RHF iter  18:  -559.80567176400655   -8.44420e-09   1.12661e-06 DIIS
   @RHF iter  19:  -559.80567176540217   -1.39562e-09   3.18350e-07 DIIS
   @RHF iter  20:  -559.80567176550107   -9.89075e-11   8.62331e-08 DIIS
   @RHF iter  21:  -559.80567176550858   -7.50333e-12   2.01655e-08 DIIS
   @RHF iter  22:  -559.80567176550994   -1.36424e-12   3.77603e-09 DIIS
   @RHF iter  23:  -559.80567176550926    6.82121e-13   1.18990e-09 DIIS
   @RHF iter  24:  -559.80567176550949   -2.27374e-13   4.61828e-10 DIIS
   @RHF iter  25:  -559.80567176550903    4.54747e-13   8.43967e-11 DIIS

  ==> Post-Iterations <==

    Orbital Energies (a.u.)
    -----------------------

    Doubly Occupied:                                                      

       1A    -90.776263     2A    -20.342746     3A    -15.402478  
       4A    -11.142096     5A     -8.674792     6A     -6.306984  
       7A     -6.304924     8A     -6.301706     9A     -1.475351  
      10A     -0.995038    11A     -0.945021    12A     -0.788244  
      13A     -0.684932    14A     -0.558273    15A     -0.532093  
      16A     -0.468887    17A     -0.403466    18A     -0.376966  
      19A     -0.344904    20A     -0.284825  

    Virtual:                                                              

      21A      0.383687    22A      0.438491    23A      0.476418  
      24A      0.561516    25A      0.591692    26A      0.695731  
      27A      0.751214  

    Final Occupation by Irrep:
              A 
    DOCC [    20 ]

  Energy converged.

  @RHF Final Energy:  -559.80567176550903

   => Energetics <=

    Nuclear Repulsion Energy =            160.9971263818302418
    One-Electron Energy =               -1095.3856217022671444
    Two-Electron Energy =                 374.5828235549279270
    DFT Exchange-Correlation Energy =       0.0000000000000000
    Empirical Dispersion Energy =           0.0000000000000000
    PCM Polarization Energy =               0.0000000000000000
    EFP Energy =                            0.0000000000000000
    Total Energy =                       -559.8056717655090324

    Alert: EFP and PCM quantities not currently incorporated into SCF psivars.

Properties will be evaluated at   0.000000,   0.000000,   0.000000 Bohr
  ==> Properties <==


Properties computed using the SCF density matrix

  Nuclear Dipole Moment: (a.u.)
     X:    -2.8956      Y:    -0.0088      Z:    -0.9474

  Electronic Dipole Moment: (a.u.)
     X:     2.1599      Y:     0.5031      Z:     0.5383

  Dipole Moment: (a.u.)
     X:    -0.7357      Y:     0.4944      Z:    -0.4091     Total:     0.9762

  Dipole Moment: (Debye)
     X:    -1.8699      Y:     1.2566      Z:    -1.0399     Total:     2.4813


  Saving occupied orbitals to File 180.

*** tstop() called on copper at Wed Feb 24 15:11:46 2016
Module time:
	user time   =       3.62 seconds =       0.06 minutes
	system time =       0.07 seconds =       0.00 minutes
	total time  =          1 seconds =       0.02 minutes
Total time:
	user time   =       3.62 seconds =       0.06 minutes
	system time =       0.07 seconds =       0.00 minutes
	total time  =          1 seconds =       0.02 minutes

*** tstart() called on copper
*** at Wed Feb 24 15:11:46 2016


	Wfn Parameters:
	--------------------
	Wavefunction         = CCSD_T
	Number of irreps     = 1
	Number of MOs        = 27
	Number of active MOs = 27
	AO-Basis             = NONE
	Semicanonical        = false
	Reference            = RHF
	Print Level          = 1

	IRREP	# MOs	# FZDC	# DOCC	# SOCC	# VIRT	# FZVR
	-----	-----	------	------	------	------	------
	 A	   27	    0	    20	    0	    7	    0
	Transforming integrals...
	IWL integrals will be deleted.
	(OO|OO)...
	Presorting SO-basis two-electron integrals.
	Sorting File: SO Ints (nn|nn) nbuckets = 1
	Transforming the one-electron integrals and constructing Fock matrices
	Starting first half-transformation.
	Sorting half-transformed integrals.
	First half integral transformation complete.
	Starting second half-transformation.
	Two-electron integral transformation complete.
	(OO|OV)...
	Starting second half-transformation.
	Two-electron integral transformation complete.
	(OO|VV)...
	Starting second half-transformation.
	Two-electron integral transformation complete.
	(OV|OO)...
	Starting first half-transformation.
	Sorting half-transformed integrals.
	First half integral transformation complete.
	Starting second half-transformation.
	Two-electron integral transformation complete.
	(OV|OV)...
	Starting second half-transformation.
	Two-electron integral transformation complete.
	(OV|VV)...
	Starting second half-transformation.
	Two-electron integral transformation complete.
	(VV|OO)...
	Starting first half-transformation.
	Sorting half-transformed integrals.
	First half integral transformation complete.
	Starting second half-transformation.
	Two-electron integral transformation complete.
	(VV|OV)...
	Starting second half-transformation.
	Two-electron integral transformation complete.
	(VV|VV)...
	Starting second half-transformation.
	Two-electron integral transformation complete.
	Frozen core energy     =      0.00000000000000

	Size of irrep 0 of <ab|cd> integrals:      0.002 (MW) /      0.019 (MB)
	Total:                                     0.002 (MW) /      0.019 (MB)

	Size of irrep 0 of <ia|bc> integrals:      0.007 (MW) /      0.055 (MB)
	Total:                                     0.007 (MW) /      0.055 (MB)

	Size of irrep 0 of tijab amplitudes:       0.020 (MW) /      0.157 (MB)
	Total:                                     0.020 (MW) /      0.157 (MB)

	Nuclear Rep. energy          =    160.99712638183024
	SCF energy                   =   -559.80567176550903
	One-electron energy          =  -1095.38562170159707
	Two-electron energy          =    374.58282355425695
	Reference energy             =   -559.80567176550994

*** tstop() called on copper at Wed Feb 24 15:11:47 2016
Module time:
	user time   =       0.31 seconds =       0.01 minutes
	system time =       0.02 seconds =       0.00 minutes
	total time  =          1 seconds =       0.02 minutes
Total time:
	user time   =       4.47 seconds =       0.07 minutes
	system time =       0.10 seconds =       0.00 minutes
	total time  =          2 seconds =       0.03 minutes

*** tstart() called on copper
*** at Wed Feb 24 15:11:47 2016

			**************************
			*                        *
			*        CCENERGY        *
			*                        *
			**************************

	Nuclear Rep. energy (wfn)     =  160.997126381830242
	SCF energy          (wfn)     = -559.805671765509032
	Reference energy    (file100) = -559.805671765509942

	Input parameters:
	-----------------
	Wave function   =   CCSD_T
	Reference wfn   =     RHF
	Brueckner       =     No
	Memory (Mbytes) =     256.0
	Maxiter         =     50
	R_Convergence   =     1.0e-07
	E_Convergence   =     1.0e-10
	Restart         =     Yes
	DIIS            =     Yes
	AO Basis        =     NONE
	ABCD            =     NEW
	Cache Level     =     2
	Cache Type      =     LOW
	Print Level     =     1
	Num. of threads =     4
	# Amps to Print =     10
	Print MP2 Amps? =     No
	Analyze T2 Amps =     No
	Print Pair Ener =     No
	Local CC        =     No
	SCS-MP2         =     False
	SCSN-MP2        =     False
	SCS-CCSD        =     False

MP2 correlaction energy -0.1731367577590049
	            Solving CC Amplitude Equations
	            ------------------------------
  Iter             Energy              RMS        T1Diag      D1Diag    New D1Diag    D2Diag
  ----     ---------------------    ---------   ----------  ----------  ----------   --------
     0        -0.173136757759005    0.000e+00    0.000000    0.000000    0.000000    0.130931
     1        -0.204292351544476    6.938e-02    0.004085    0.017234    0.017234    0.156577
     2        -0.218842854504022    2.604e-02    0.005746    0.022926    0.022926    0.170486
     3        -0.220023628557743    5.963e-03    0.006314    0.025800    0.025800    0.172719
     4        -0.220256869165359    2.220e-03    0.006510    0.026874    0.026874    0.173669
     5        -0.220267374872361    6.429e-04    0.006568    0.027302    0.027302    0.173847
     6        -0.220262594026495    2.158e-04    0.006584    0.027441    0.027441    0.173859
     7        -0.220261876053737    9.826e-05    0.006590    0.027513    0.027513    0.173855
     8        -0.220262281500367    3.879e-05    0.006592    0.027539    0.027539    0.173853
     9        -0.220262050205436    1.377e-05    0.006593    0.027544    0.027544    0.173852
    10        -0.220261825615932    5.694e-06    0.006592    0.027545    0.027545    0.173852
    11        -0.220261913125899    1.764e-06    0.006592    0.027545    0.027545    0.173853
    12        -0.220261985372750    6.978e-07    0.006592    0.027544    0.027544    0.173853
    13        -0.220262026146900    2.620e-07    0.006592    0.027544    0.027544    0.173853
    14        -0.220262032222315    9.315e-08    0.006592    0.027544    0.027544    0.173853
    15        -0.220262032118573    3.595e-08    0.006592    0.027544    0.027544    0.173853
    16        -0.220262031459957    1.327e-08    0.006592    0.027544    0.027544    0.173853
    17        -0.220262031446307    4.961e-09    0.006592    0.027544    0.027544    0.173853
    18        -0.220262031504992    2.323e-09    0.006592    0.027544    0.027544    0.173853

	Iterations converged.


	Largest TIA Amplitudes:
	         18   3         0.0206455092
	         16   1        -0.0131015528
	         18   0        -0.0118833217
	         16   4         0.0110434348
	          9   3         0.0081277636
	         12   4        -0.0080861981
	         18   4         0.0073790838
	          9   4        -0.0071946869
	         17   2         0.0071355047
	         17   3        -0.0064821172

	Largest TIjAb Amplitudes:
	 16  16   0   0        -0.0409537027
	 15  15   2   2        -0.0400672933
	 15  15   0   0        -0.0372988163
	 17  17   0   0        -0.0370048295
	 17  17   1   1        -0.0351324178
	 17  17   2   2        -0.0312274475
	 15  17   0   2        -0.0285431376
	 17  15   2   0        -0.0285431376
	 11  11   5   5        -0.0272234895
	 15  16   2   0         0.0269982883

	SCF energy       (wfn)                = -559.805671765509032
	Reference energy (file100)            = -559.805671765509942

	Opposite-spin MP2 correlation energy  =   -0.148556291116744
	Same-spin MP2 correlation energy      =   -0.024580466642260
	MP2 correlation energy                =   -0.173136757759005
      * MP2 total energy                      = -559.978808523268981

	Opposite-spin CCSD correlation energy =   -0.198224040202903
	Same-spin CCSD correlation energy     =   -0.022037991292600
	CCSD correlation energy               =   -0.220262031504992
      * CCSD total energy                 = -560.025933797014886


*** tstop() called on copper at Wed Feb 24 15:11:47 2016
Module time:
	user time   =       2.59 seconds =       0.04 minutes
	system time =       0.23 seconds =       0.00 minutes
	total time  =          0 seconds =       0.00 minutes
Total time:
	user time   =       7.06 seconds =       0.12 minutes
	system time =       0.33 seconds =       0.01 minutes
	total time  =          2 seconds =       0.03 minutes

*** tstart() called on copper
*** at Wed Feb 24 15:11:47 2016

			**************************
			*                        *
			*        CCTRIPLES       *
			*                        *
			**************************


	Wave function   =    CCSD_T
	Reference wfn   =      RHF

	Nuclear Rep. energy (wfn)     =  160.997126381830242
	SCF energy          (wfn)     = -559.805671765509032
	Reference energy    (file100) = -559.805671765509942
	CCSD energy         (file100) =   -0.220262031504992
	Total CCSD energy   (file100) = -560.025933797014886

	Number of ijk index combinations: 1540
	Memory available in words        :        32000000
	~Words needed per explicit thread:            1372
	Number of threads for explicit ijk threading:    4.
	(T) energy                    =   -0.002944061460776
      * CCSD(T) total energy          = -560.028877858475767


*** tstop() called on copper at Wed Feb 24 15:11:47 2016
Module time:
	user time   =       0.37 seconds =       0.01 minutes
	system time =       0.01 seconds =       0.00 minutes
	total time  =          0 seconds =       0.00 minutes
Total time:
	user time   =       7.43 seconds =       0.12 minutes
	system time =       0.34 seconds =       0.01 minutes
	total time  =          2 seconds =       0.03 minutes

*** PSI4 exiting successfully. Buy a developer a beer!
