This is a multi-thread run using 4 threads
/home/eric/opt/apps/qchem/trunk_gcc_release_r20063_20160119_qints_r729/exe/qcprog.exe .qchem.in.16657.qcin.1 /tmp/qchem/qchem16657/

Process 0 of 1 is on copper - thread support 0
initial socket setup ...start
initial socket setup ...done 
now start server 0 ... 
                  Welcome to Q-Chem
     A Quantum Leap Into The Future Of Chemistry


 Q-Chem 4.3, Q-Chem, Inc., Pleasanton, CA (2015)

 Y. Shao,  Z. Gan,  E. Epifanovsky,  A. T. B. Gilbert,  M. Wormit,  
 J. Kussmann,  A. W. Lange,  A. Behn,  J. Deng,  X. Feng,  D. Ghosh,  
 M. Goldey,  P. R. Horn,  L. D. Jacobson,  I. Kaliman,  R. Z. Khaliullin,  
 T. Kus,  A. Landau,  J. Liu,  E. I. Proynov,  Y. M. Rhee,  R. M. Richard,  
 M. A. Rohrdanz,  R. P. Steele,  E. J. Sundstrom,  H. L. Woodcock III,  
 P. M. Zimmerman,  D. Zuev,  B. Albrecht,  E. Alguire,  B. Austin,  
 S. A. Baeppler,  G. J. O. Beran,  Y. A. Bernard,  E. Berquist,  
 K. Brandhorst,  K. B. Bravaya,  S. T. Brown,  D. Casanova,  C.-M. Chang,  
 Y. Chen,  S. H. Chien,  K. D. Closser,  D. L. Crittenden,  M. Diedenhofen,  
 R. A. DiStasio Jr.,  H. Do,  A. D. Dutoi,  R. G. Edgar,  P.-T. Fang,  
 S. Fatehi,  Q. Feng,  L. Fusti-Molnar,  A. Ghysels,  
 A. Golubeva-Zadorozhnaya,  J. Gomes,  A. Gunina,  M. W. D. Hanson-Heine,  
 P. H. P. Harbach,  A. W. Hauser,  E. G. Hohenstein,  Z. C. Holden,  K. Hui,  
 T.-C. Jagau,  H. Ji,  B. Kaduk,  K. Khistyaev,  Jaehoon Kim,  Jihan Kim,  
 R. A. King,  P. Klunzinger,  D. Kosenkov,  T. Kowalczyk,  C. M. Krauter,  
 K. U. Lao,  A. Laurent,  K. V. Lawler,  S. Lehtola,  S. V. Levchenko,  
 C. Y. Lin,  Y.-S. Lin,  F. Liu,  E. Livshits,  R. C. Lochan,  A. Luenser,  
 P. Manohar,  S. F. Manzer,  S.-P. Mao,  N. Mardirossian,  A. V. Marenich,  
 L. A. Martinez-Martinez,  S. A. Maurer,  N. J. Mayhall,  K. Nanda,  
 C. M. Oana,  R. Olivares-Amaya,  D. P. O'Neill,  J. A. Parkhill,  
 T. M. Perrine,  R. Peverati,  P. A. Pieniazek,  F. Plasser,  A. Prociuk,  
 D. R. Rehn,  E. Rosta,  N. J. Russ,  N. Sergueev,  S. M. Sharada,  
 S. Sharma,  D. W. Small,  A. Sodt,  T. Stauch,  T. Stein,  D. Stuck,  
 Y.-C. Su,  A. J. W. Thom,  T. Tsuchimochi,  L. Vogt,  O. Vydrov,  T. Wang,  
 M. A. Watson,  J. Wenzel,  A. White,  C. F. Williams,  V. Vanovschi,  
 S. Yeganeh,  S. R. Yost,  Z.-Q. You,  I. Y. Zhang,  X. Zhang,  Y. Zhao,  
 B. R. Brooks,  G. K. L. Chan,  D. M. Chipman,  C. J. Cramer,  
 W. A. Goddard III,  M. S. Gordon,  W. J. Hehre,  A. Klamt,  
 H. F. Schaefer III,  M. W. Schmidt,  C. D. Sherrill,  D. G. Truhlar,  
 A. Warshel,  X. Xu,  A. Aspuru-Guzik,  R. Baer,  A. T. Bell,  N. A. Besley,  
 J.-D. Chai,  A. Dreuw,  B. D. Dunietz,  T. R. Furlani,  S. R. Gwaltney,  
 C.-P. Hsu,  Y. Jung,  J. Kong,  D. S. Lambrecht,  W. Liang,  C. Ochsenfeld,  
 V. A. Rassolov,  L. V. Slipchenko,  J. E. Subotnik,  T. Van Voorhis,  
 J. M. Herbert,  A. I. Krylov,  P. M. W. Gill,  M. Head-Gordon

 Contributors to earlier versions of Q-Chem not listed above: 
 R. D. Adamson,  J. Baker,  E. F. C. Byrd,  A. K. Chakraborty,  C.-L. Cheng,  
 H. Dachsel,  R. J. Doerksen,  G. Hawkins,  A. Heyden,  S. Hirata,  
 G. Kedziora,  F. J. Keil,  C. Kelley,  P. P. Korambath,  W. Kurlancheek,  
 A. M. Lee,  M. S. Lee,  D. Liotard,  I. Lotan,  P. E. Maslen,  N. Nair,  
 D. Neuhauser,  R. Olson,  B. Peters,  J. Ritchie,  N. E. Schultz,  
 N. Shenvi,  A. C. Simmonett,  K. S. Thanthiriwatte,  Q. Wu,  W. Zhang

 Please cite Q-Chem as follows:
 Y. Shao et al., Mol. Phys. 113, 184-215 (2015)
 DOI: 10.1080/00268976.2014.952696

 Q-Chem 4.3.0 for Intel X86 EM64T Linux

 Parts of Q-Chem use Armadillo 5.200.1 (Boston Tea Smuggler).
 http://arma.sourceforge.net/

 Q-Chem begins on Wed Feb  3 16:59:25 2016  

copper
Host: 0

     Scratch files written to /tmp/qchem/qchem16657//
 Parallel job on  1  processors

Checking the input file for inconsistencies... 	...done.

--------------------------------------------------------------
User input:
--------------------------------------------------------------
$rem
 method = ccsd(t)
 basis = sto-3g
 scf_convergence = 9
 thresh = 14
 scf_max_cycles = 1000
 symmetry = false
 sym_ignore = true
 cc_symmetry = false
 n_frozen_core = fc
$end

$molecule
0 1
C         -4.17279        2.71785       -0.10705
N         -4.61074        1.36006        0.11435
O         -3.39764        1.66807       -0.47929
S         -3.54968        3.49993        1.40731
H         -4.65853        3.25487       -0.95033
H         -5.24440        1.07756       -0.66755
H         -4.78235        3.34711        2.06997
$end
--------------------------------------------------------------
 ----------------------------------------------------------------
             Standard Nuclear Orientation (Angstroms)
    I     Atom           X                Y                Z
 ----------------------------------------------------------------
    1      C      -4.1727900000     2.7178500000    -0.1070500000
    2      N      -4.6107400000     1.3600600000     0.1143500000
    3      O      -3.3976400000     1.6680700000    -0.4792900000
    4      S      -3.5496800000     3.4999300000     1.4073100000
    5      H      -4.6585300000     3.2548700000    -0.9503300000
    6      H      -5.2444000000     1.0775600000    -0.6675500000
    7      H      -4.7823500000     3.3471100000     2.0699700000
 ----------------------------------------------------------------
 Nuclear Repulsion Energy =   160.9971270542 hartrees
 There are       20 alpha and       20 beta electrons
 Requested basis set is STO-3G
 There are 12 shells and 27 basis functions
 Total memory of 1562MB is distributed as follows: 
   QALLOC including MEM_STATIC uses 1062MB
   MEM_STATIC is set to 62MB
   CCMAN JOB total memory use is  1500MB
 Warning: actual memory use might exceed 1562MB

 Total QAlloc Memory Limit   1062 MB
 Mega-Array Size        61 MB
 MEM_STATIC part        62 MB

                       Distance Matrix (Angstroms)
             C (  1)   N (  2)   O (  3)   S (  4)   H (  5)   H (  6)
   N (  2)  1.443749
   O (  3)  1.357003  1.385240
   S (  4)  1.814718  2.715997  2.634025
   H (  5)  1.111510  2.173967  2.080783  2.616882
   H (  6)  2.037906  1.045322  1.947990  3.611786  2.272419
   H (  7)  2.346689  2.793254  3.351913  1.407817  3.024244  3.585856


 tim1(1): 
   0.0000000000000000     
 tim1(2): 
   0.0000000000000000     
 A cutoff of  1.0D-14 yielded     73 shell pairs
 There are       397 function pairs

 -------------------------------------------------------
 OpenMP Integral Computing Module                       
 Release: version 1.0, May 2013, Q-Chem Inc. Pittsburgh 
 -------------------------------------------------------
 Integral Job Info:
 Integral job number is                      11
 Integral operator is                         1
 short-range coefficients                     0
 long-range coefficients              100000000
 Omega coefficients                           0
 if combine SR and LR in K                    0
 Integral screening is                        0
 Integral computing path is                   2
 max size of driver memory is            800000
 size of driver memory is                 45569
 size of scratch memory is               945100
 max col of scratch BK array                289
 max len of scratch array in speh3           22
 max len of scratch index in speh4            8
 max int batch size is                      520
 min int batch size is                       52
 fixed nKL is                                52
 max L of basis functions is                  1
 order of int derivative is                   0
 number of shells is                         12
 number of basis is                          27
 number of cartesian basis is                27
 number of contracted shell pairs            73
 number of primitive shell pairs            576
 maxK2 (contraction) of shell pair            9
 max number of K2 of shell pair               1
 max number of CS2 of shell pair             20
 max number of PS2 of shell pair            180
 mem total for path MDJ                   12846
 -------------------------------------------------------
 Smallest overlap matrix eigenvalue = 2.54E-01

 Scale SEOQF with 1.000000e-01/1.000000e-01/1.000000e-01

 Standard Electronic Orientation quadrupole field applied
 Nucleus-field energy     =     0.0000000392 hartrees
 Guess from superposition of atomic densities
 Warning:  Energy on first SCF cycle will be non-variational
 A restricted Hartree-Fock SCF calculation will be
 performed using Pulay DIIS extrapolation
 SCF converges when DIIS error is below 1.0E-09
 using 4 threads for integral computing 
 ---------------------------------------
  Cycle       Energy         DIIS Error
 ---------------------------------------
    1    -559.5599917781      2.02E-01
    2    -559.7060146421      2.63E-02
    3    -559.7933931649      1.03E-02
    4    -559.8050765888      1.48E-03
    5    -559.8056401535      3.04E-04
    6    -559.8056687110      9.24E-05
    7    -559.8056717411      1.99E-05
    8    -559.8056718860      6.07E-06
    9    -559.8056719004      1.41E-06
   10    -559.8056719011      4.62E-07
   11    -559.8056719011      8.55E-08
   12    -559.8056719011      1.69E-08
   13    -559.8056719011      3.68E-09
   14    -559.8056719011      6.68E-10 Convergence criterion met
 ---------------------------------------
 SCF time:  CPU 1.44 s  wall 1.13 s
 SCF   energy in the final basis set = -559.8056719011
 Total energy in the final basis set = -559.8056719011


 ------------------------------------------------------------------------------

   CCMAN2: suite of methods based on coupled cluster
           and equation of motion theories.

   Components:
   * libvmm-1.2-release
     by Evgeny Epifanovsky, Ilya Kaliman.
   * libtensor-2.4-trunk
     by Evgeny Epifanovsky, Michael Wormit, Dmitry Zuev, Sam Manzer.
   * libcc-2.4-trunk
     by Evgeny Epifanovsky, Arik Landau, Tomasz Kus, Kirill Khistyaev, 
        Dmitry Zuev, Prashant Manohar, Xintian Feng, Anna Krylov, 
        Matthew Goldey, Alec White, Thomas Jagau, Kaushik Nanda, 
        Anastasia Gunina.

   CCMAN original authors:
   Anna I. Krylov, C. David Sherrill, Steven R. Gwaltney,
   Edward F. C. Byrd (2000)
   Sergey V. Levchenko, Lyudmila V. Slipchenko, Tao Wang,
   Ana-Maria C. Cristian (2003)
   Piotr A. Pieniazek, C. Melania Oana, Evgeny Epifanovsky (2007)
   Prashant Manohar (2009)

 ------------------------------------------------------------------------------


 Calculation will run on 4 cores with 1500MB of RAM.


 Occupation and symmetry of molecular orbitals

 Point group: C1 (1 irreducible representation).

                           A     All 
 -------------------------------------
 All molecular orbitals:
  - Alpha                  27    27  
  - Beta                   27    27  
 -------------------------------------
 Alpha orbitals:
  - Frozen occupied        8     8   
  - Active occupied        12    12  
  - Active virtual         7     7   
  - Frozen virtual         0     0   
 -------------------------------------
 Beta orbitals:
  - Frozen occupied        8     8   
  - Active occupied        12    12  
  - Active virtual         7     7   
  - Frozen virtual         0     0   
 -------------------------------------

 Import integrals:   CPU 0.00 s  wall 0.00 s


 Import integrals:   CPU 0.05 s  wall 0.08 s

 MP2 amplitudes:   CPU 0.00 s  wall 0.13 s

           CCSD T amplitudes will be solved using DIIS.

           Start     Size      MaxIter   EConv     TConv     
           3         7         100       0x1.0c6f7a0b5ed8dp-20 0x1.a36e2eb1c432dp-14 
 ------------------------------------------------------------------------------
           Energy (a.u.)   Ediff      Tdiff       Comment
 ------------------------------------------------------------------------------
          -559.97739452                           
     1    -560.00875884   3.14e-02   4.18e-01     
     2    -560.01867003   9.91e-03   8.34e-02     
     3    -560.02211348   3.44e-03   2.95e-02     
     4    -560.02456088   2.45e-03   1.92e-02     Switched to DIIS steps.
     5    -560.02472375   1.63e-04   2.73e-03     
     6    -560.02475793   3.42e-05   1.27e-03     
     7    -560.02476093   3.00e-06   2.81e-04     
     8    -560.02476130   3.78e-07   1.04e-04     
     9    -560.02476128   2.52e-08   5.82e-05     
 ------------------------------------------------------------------------------
          -560.02476128                           CCSD T converged.

 SCF energy                 = -559.80567190
 MP2 energy                 = -559.97739452
 CCSD correlation energy     =   -0.21908938
 CCSD total energy           = -560.02476128
 CCSD(T) correlation energy =   -0.00291363
 CCSD(T) total energy       = -560.02767491

 CCSD  T1^2 = 0.0035  T2^2 = 0.1337  Leading amplitudes:

 Amplitude    Orbitals with energies
  0.0207       19 (A) A                  ->    24 (A) A                   
              -0.3449                          0.5615                     
  0.0207       19 (A) B                  ->    24 (A) B                   
              -0.3449                          0.5615                     
  0.0132       17 (A) A                  ->    22 (A) A                   
              -0.4035                          0.4385                     
  0.0132       17 (A) B                  ->    22 (A) B                   
              -0.4035                          0.4385                     

 Amplitude    Orbitals with energies
 -0.0410       17 (A) A      17 (A) B    ->    21 (A) A      21 (A) B     
              -0.4035       -0.4035            0.3837        0.3837       
  0.0410       17 (A) A      17 (A) B    ->    21 (A) B      21 (A) A     
              -0.4035       -0.4035            0.3837        0.3837       
  0.0410       17 (A) B      17 (A) A    ->    21 (A) A      21 (A) B     
              -0.4035       -0.4035            0.3837        0.3837       
 -0.0410       17 (A) B      17 (A) A    ->    21 (A) B      21 (A) A     
              -0.4035       -0.4035            0.3837        0.3837       

 CCSD calculation:   CPU 0.45 s  wall 0.79 s

 Total ccman2 time:   CPU 1.91 s  wall 3.12 s


 --------------------------------------------------------------

                    Orbital Energies (a.u.)
 --------------------------------------------------------------

 Alpha MOs
 -- Occupied --
-90.776 -20.343 -15.402 -11.142  -8.675  -6.307  -6.305  -6.302
 -1.475  -0.995  -0.945  -0.788  -0.685  -0.558  -0.532  -0.469
 -0.403  -0.377  -0.345  -0.285
 -- Virtual --
  0.384   0.438   0.476   0.562   0.592   0.696   0.751
 --------------------------------------------------------------

          Ground-State Mulliken Net Atomic Charges

     Atom                 Charge (a.u.)
  ----------------------------------------
      1 C                     0.009020
      2 N                    -0.218544
      3 O                    -0.169453
      4 S                     0.160074
      5 H                     0.076703
      6 H                     0.163483
      7 H                    -0.021285
  ----------------------------------------
  Sum of atomic charges =     0.000000

 -----------------------------------------------------------------
                    Cartesian Multipole Moments
 -----------------------------------------------------------------
    Charge (ESU x 10^10)
                 0.0000
    Dipole Moment (Debye)
         X      -1.8699      Y       1.2566      Z      -1.0399
       Tot       2.4813
    Quadrupole Moments (Debye-Ang)
        XX     -12.3078     XY      -9.3521     YY     -23.1880
        XZ       4.7478     YZ      -1.0657     ZZ     -26.4046
    Octopole Moments (Debye-Ang^2)
       XXX     230.3369    XXY     -16.3091    XYY      79.2185
       YYY    -206.5642    XXZ     -36.6082    XYZ       2.4939
       YYZ     -15.7095    XZZ     100.5936    YZZ     -66.5355
       ZZZ     -38.0358
    Hexadecapole Moments (Debye-Ang^3)
      XXXX   -2089.2567   XXXY     530.2652   XXYY    -484.0115
      XYYY     757.5706   YYYY   -1282.3409   XXXZ     263.5506
      XXYZ     -57.3065   XYYZ      47.4813   YYYZ    -165.1857
      XXZZ    -423.3844   XYZZ     246.4673   YYZZ    -223.3366
      XZZZ     134.7706   YZZZ    -142.3841   ZZZZ    -171.3338
 -----------------------------------------------------------------
Archival summary:
1\1\copper\SP\ProcedureUnspecified\STO-3G\11113\eric\WedFeb316:59:302016WedFeb316:59:302016\0\\#,ProcedureUnspecified,STO-3G,\\0,1\S\H,1,1.40782\C,1,1.81472,2,92.6001\H,3,1.11151,1,125.096,2,-90.0584,0\O,3,1.357,1,111.479,2,124.662,0\N,5,1.38524,3,63.5267,1,-104.044,0\H,6,1.04532,5,105.688,3,-102.636,0\\HF=-559.805672\\@

 Total job time:  4.64s(wall), 3.70s(cpu) 
 Wed Feb  3 16:59:30 2016

        *************************************************************
        *                                                           *
        *  Thank you very much for using Q-Chem.  Have a nice day.  *
        *                                                           *
        *************************************************************


0 sent ACK to 0 
now end server 0 ... 
