                  Welcome to Q-Chem
     A Quantum Leap Into The Future Of Chemistry


 Q-Chem 5.3 (devel), Q-Chem, Inc., Pleasanton, CA (2020)

 Yihan Shao,  Zhengting Gan,  E. Epifanovsky,  A. T. B. Gilbert,  M. Wormit,  
 J. Kussmann,  A. W. Lange,  A. Behn,  Jia Deng,  Xintian Feng,  D. Ghosh,  
 M. Goldey,  P. R. Horn,  L. D. Jacobson,  I. Kaliman,  T. Kus,  A. Landau,  
 Jie Liu,  E. I. Proynov,  R. M. Richard,  R. P. Steele,  E. J. Sundstrom,  
 H. L. Woodcock III,  P. M. Zimmerman,  D. Zuev,  B. Alam,  B. Albrecht,  
 A. Aldossary,  E. Alguire,  S. A. Baeppler,  D. Barton,  Z. Benda,  
 Y. A. Bernard,  E. J. Berquist,  K. B. Bravaya,  H. Burton,  K. Carter-Fenk,  
 D. Casanova,  Chun-Min Chang,  Yunqing Chen,  A. Chien,  K. D. Closser,  
 M. P. Coons,  S. Coriani,  S. Dasgupta,  A. L. Dempwolff,  M. Diedenhofen,  
 Hainam Do,  R. G. Edgar,  Po-Tung Fang,  S. Faraji,  S. Fatehi,  
 Qingguo Feng,  J. Fosso-Tande,  J. Gayvert,  Qinghui Ge,  A. Ghysels,  
 G. Gidofalvi,  J. Gomes,  J. Gonthier,  S. Gulania,  A. Gunina,  D. Hait,  
 M. W. D. Hanson-Heine,  S. Hammes-Schiffer,  P. H. P. Harbach,  
 A. W. Hauser,  M. F. Herbst,  J. E. Herr,  E. G. Hohenstein,  Z. C. Holden,  
 S. Houck,  Kerwin Hui,  B. C. Huynh,  M. Ivanov,  T.-C. Jagau,  Hyunjun Ji,  
 B. Kaduk,  K. Khistyaev,  Jaehoon Kim,  P. Klunzinger,  K. Koh,  
 D. Kosenkov,  L. Koulias,  T. Kowalczyk,  C. M. Krauter,  A. Kunitsa,  
 Ka Un Lao,  A. Laurent,  K. V. Lawler,  Joonho Lee,  D. Lefrancois,  
 S. Lehtola,  D. S. Levine,  Yi-Pei Li,  You-Sheng Lin,  Fenglai Liu,  
 Kuan-Yu Liu,  E. Livshits,  M. Loipersberger,  A. Luenser,  A. Manjanath,  
 P. Manohar,  E. Mansoor,  S. F. Manzer,  Shan-Ping Mao,  Yuezhi Mao,  
 N. Mardirossian,  A. V. Marenich,  T. Markovich,  L. A. Martinez-Martinez,  
 S. A. Maurer,  N. J. Mayhall,  S. C. McKenzie,  J.-M. Mewes,  P. Morgante,  
 A. F. Morrison,  J. W. Mullinax,  K. Nanda,  T. S. Nguyen-Beck,  
 R. Olivares-Amaya,  K. J. Oosterbaan,  J. A. Parkhill,  S. K. Paul,  
 F. Pavosevic,  Zheng Pei,  T. M. Perrine,  F. Plasser,  P. Pokhilko,  
 S. Prager,  A. Prociuk,  E. Ramos,  B. Rana,  D. R. Rehn,  F. Rob,  
 E. Rossomme,  M. Scheurer,  M. Schneider,  N. Sergueev,  S. M. Sharada,  
 S. Sharma,  W. Skomorowski,  D. W. Small,  T. Stauch,  C. J. Stein,  
 T. Stein,  Yu-Chuan Su,  S. P. Veccham,  Zhen Tao,  A. J. W. Thom,  
 A. Tkatchenko,  T. Tsuchimochi,  N. M. Tubman,  L. Vogt,  M. L. Vidal,  
 O. Vydrov,  M. A. Watson,  J. Wenzel,  M. de Wergifosse,  T. A. Wesolowski,  
 A. White,  J. Witte,  A. Yamada,  Jun Yang,  K. Yao,  S. Yeganeh,  
 S. R. Yost,  Zhi-Qiang You,  A. Zech,  Igor Ying Zhang,  Xing Zhang,  
 Yan Zhao,  Ying Zhu,  B. R. Brooks,  G. K. L. Chan,  C. J. Cramer,  
 M. S. Gordon,  W. J. Hehre,  A. Klamt,  M. W. Schmidt,  C. D. Sherrill,  
 D. G. Truhlar,  A. Aspuru-Guzik,  R. Baer,  A. T. Bell,  N. A. Besley,  
 Jeng-Da Chai,  A. E. DePrince, III,  R. A. DiStasio Jr.,  A. Dreuw,  
 B. D. Dunietz,  T. R. Furlani,  Chao-Ping Hsu,  Yousung Jung,  Jing Kong,  
 D. S. Lambrecht,  WanZhen Liang,  C. Ochsenfeld,  V. A. Rassolov,  
 L. V. Slipchenko,  J. E. Subotnik,  T. Van Voorhis,  J. M. Herbert,  
 A. I. Krylov,  P. M. W. Gill,  M. Head-Gordon

 Contributors to earlier versions of Q-Chem not listed above: 
 R. D. Adamson,  B. Austin,  J. Baker,  G. J. O. Beran,  K. Brandhorst,  
 S. T. Brown,  E. F. C. Byrd,  A. K. Chakraborty,  C.-L. Cheng,  
 Siu Hung Chien,  D. M. Chipman,  D. L. Crittenden,  H. Dachsel,  
 R. J. Doerksen,  A. D. Dutoi,  L. Fusti-Molnar,  W. A. Goddard III,  
 A. Golubeva-Zadorozhnaya,  S. R. Gwaltney,  G. Hawkins,  A. Heyden,  
 S. Hirata,  G. Kedziora,  F. J. Keil,  C. Kelley,  Jihan Kim,  R. A. King,  
 R. Z. Khaliullin,  P. P. Korambath,  W. Kurlancheek,  A. M. Lee,  M. S. Lee,  
 S. V. Levchenko,  Ching Yeh Lin,  D. Liotard,  R. C. Lochan,  I. Lotan,  
 P. E. Maslen,  N. Nair,  D. P. O'Neill,  D. Neuhauser,  E. Neuscamman,  
 C. M. Oana,  R. Olson,  B. Peters,  R. Peverati,  P. A. Pieniazek,  
 Y. M. Rhee,  J. Ritchie,  M. A. Rohrdanz,  E. Rosta,  N. J. Russ,  
 H. F. Schaefer III,  N. E. Schultz,  N. Shenvi,  A. C. Simmonett,  A. Sodt,  
 D. Stuck,  K. S. Thanthiriwatte,  V. Vanovschi,  Tao Wang,  A. Warshel,  
 C. F. Williams,  Q. Wu,  X. Xu,  W. Zhang

 Please cite Q-Chem as follows:
 Y. Shao et al., Mol. Phys. 113, 184-215 (2015)
 DOI: 10.1080/00268976.2014.952696

 Q-Chem 5.3.2 for Intel X86 EM64T Linux

 Parts of Q-Chem use Armadillo 9.800.1 (Horizon Scraper).
 http://arma.sourceforge.net/

Compilation information
-----------------------

 SVN revision             | 35976
 SVN branch               | trunk
 Last SVN revision        | 35971
 Last SVN author          | tarek.scheele
 Hostname                 | osmium
 User                     | eric
 System                   | Linux-5.8.14-arch1-1
 Processor                | x86_64
 Compiler                 | GNU
 C compiler version       | 9.3.0
 CXX compiler version     | 9.3.0
 Fortran compiler version | 9.3.0
 Configuration time       | 2021-02-25 00:06:41


 Q-Chem begins on Wed Apr 21 09:16:15 2021  

Host: osmium
0

     Scratch files written to /tmp/qchem/qchem805032//
Processing $rem in /home/eric/data/opt/apps/qchem/archive/r35971-g9.3.0-openblas/config/preferences:
Processing $rem in /home/eric/.qchemrc:

Checking the input file for inconsistencies... 	...done.

--------------------------------------------------------------
User input:
--------------------------------------------------------------
$rem
 method = ccsd(t)
 basis = sto-3g
 scf_convergence = 9
 thresh = 14
 scf_max_cycles = 1000
 symmetry = false
 sym_ignore = true
 cc_symmetry = false
 n_frozen_core = fc
$end

$molecule
0 1
C         -4.17279        2.71785       -0.10705
N         -4.61074        1.36006        0.11435
O         -3.39764        1.66807       -0.47929
S         -3.54968        3.49993        1.40731
H         -4.65853        3.25487       -0.95033
H         -5.24440        1.07756       -0.66755
H         -4.78235        3.34711        2.06997
$end
--------------------------------------------------------------
 ----------------------------------------------------------------
             Standard Nuclear Orientation (Angstroms)
    I     Atom           X                Y                Z
 ----------------------------------------------------------------
    1      C      -4.1727900000     2.7178500000    -0.1070500000
    2      N      -4.6107400000     1.3600600000     0.1143500000
    3      O      -3.3976400000     1.6680700000    -0.4792900000
    4      S      -3.5496800000     3.4999300000     1.4073100000
    5      H      -4.6585300000     3.2548700000    -0.9503300000
    6      H      -5.2444000000     1.0775600000    -0.6675500000
    7      H      -4.7823500000     3.3471100000     2.0699700000
 ----------------------------------------------------------------
 Nuclear Repulsion Energy =         160.99712705 hartrees
 There are       20 alpha and       20 beta electrons
 Requested basis set is STO-3G
 There are 12 shells and 27 basis functions
 Total memory of 2000 MB is distributed as follows: 
   MEM_STATIC is set to 192 MB
   QALLOC/CCMAN JOB total memory use is  1808 MB
 Warning: actual memory use might exceed 2000 MB

 Total QAlloc Memory Limit   2000 MB
 Mega-Array Size       188 MB
 MEM_STATIC part       192 MB

                       Distance Matrix (Angstroms)
             C (  1)   N (  2)   O (  3)   S (  4)   H (  5)   H (  6)
   N (  2)  1.443749
   O (  3)  1.357003  1.385240
   S (  4)  1.814718  2.715997  2.634025
   H (  5)  1.111510  2.173967  2.080783  2.616882
   H (  6)  2.037906  1.045322  1.947990  3.611786  2.272419
   H (  7)  2.346689  2.793254  3.351913  1.407817  3.024244  3.585856


 A cutoff of  1.0D-14 yielded     73 shell pairs
 There are       397 function pairs
 Smallest overlap matrix eigenvalue = 2.54E-01

 Scale SEOQF with 1.000000e-01/1.000000e-01/1.000000e-01

 Standard Electronic Orientation quadrupole field applied
 Nucleus-field energy     =     0.0000000392 hartrees
 Guess from superposition of atomic densities
 Warning:  Energy on first SCF cycle will be non-variational
 SAD guess density has 40.000000 electrons

 -----------------------------------------------------------------------
  General SCF calculation program by
  Eric Jon Sundstrom, Paul Horn, Yuezhi Mao, Dmitri Zuev, Alec White,
  David Stuck, Shaama M.S., Shane Yost, Joonho Lee, David Small,
  Daniel Levine, Susi Lehtola, Hugh Burton, Evgeny Epifanovsky,
  Bang C. Huynh
 -----------------------------------------------------------------------
 Hartree-Fock
 A restricted SCF calculation will be
 performed using DIIS
 SCF converges when DIIS error is below 1.0e-09
 ---------------------------------------
  Cycle       Energy         DIIS error
 ---------------------------------------
    1    -559.5561092232      2.02e-01  
    2    -559.7075527559      2.61e-02  
    3    -559.7935501089      1.03e-02  
    4    -559.8050831555      1.47e-03  
    5    -559.8056411230      3.00e-04  
    6    -559.8056688036      9.14e-05  
    7    -559.8056717462      1.97e-05  
    8    -559.8056718866      5.97e-06  
    9    -559.8056719004      1.42e-06  
   10    -559.8056719011      4.75e-07  
   11    -559.8056719011      8.52e-08  
   12    -559.8056719011      1.61e-08  
   13    -559.8056719011      3.41e-09  
   14    -559.8056719011      6.08e-10  Convergence criterion met
 ---------------------------------------
 SCF time:   CPU 0.11s  wall 0.00s 
 SCF   energy in the final basis set =     -559.8056719011
 Total energy in the final basis set =     -559.8056719011


 ------------------------------------------------------------------------------

   CCMAN2: suite of methods based on coupled cluster
           and equation of motion theories.

   Components:
   * libvmm-1.3-trunk
     by Evgeny Epifanovsky, Ilya Kaliman.
   * libtensor-2.5-trunk
     by Evgeny Epifanovsky, Michael Wormit, Dmitry Zuev, Sam Manzer, 
        Ilya Kaliman.
   * libcc-2.5-trunk
     by Evgeny Epifanovsky, Arik Landau, Tomasz Kus, Kirill Khistyaev, 
        Dmitry Zuev, Prashant Manohar, Xintian Feng, Anna Krylov, 
        Matthew Goldey, Alec White, Thomas Jagau, Kaushik Nanda, 
        Anastasia Gunina, Alexander Kunitsa, Joonho Lee.

   CCMAN original authors:
   Anna I. Krylov, C. David Sherrill, Steven R. Gwaltney,
   Edward F. C. Byrd (2000)
   Sergey V. Levchenko, Lyudmila V. Slipchenko, Tao Wang,
   Ana-Maria C. Cristian (2003)
   Piotr A. Pieniazek, C. Melania Oana, Evgeny Epifanovsky (2007)
   Prashant Manohar (2009)

 ------------------------------------------------------------------------------


 Allocating and initializing 1808MB of RAM...
 Calculation will run on 1 core.


 Occupation and symmetry of molecular orbitals

 Point group: C1 (1 irreducible representation).

                           A     All 
 -------------------------------------
 All molecular orbitals:
  - Alpha                  27    27  
  - Beta                   27    27  
 -------------------------------------
 Alpha orbitals:
  - Frozen occupied        8     8   
  - Active occupied        12    12  
  - Active virtual         7     7   
  - Frozen virtual         0     0   
 -------------------------------------
 Beta orbitals:
  - Frozen occupied        8     8   
  - Active occupied        12    12  
  - Active virtual         7     7   
  - Frozen virtual         0     0   
 -------------------------------------

 Import integrals:   CPU 0.00 s  wall 0.00 s

 Import integrals:   CPU 0.07 s  wall 0.22 s

 MP2 amplitudes:   CPU 0.00 s  wall 0.07 s

Running a double precision version
           CCSD T amplitudes will be solved using DIIS.

           Start     Size      MaxIter   EConv     TConv     
           3         7         100       1.00e-06  1.00e-04  
 ------------------------------------------------------------------------------
           Energy (a.u.)   Ediff      Tdiff       Comment
 ------------------------------------------------------------------------------
          -559.97739452                           
     1    -560.00875884   3.14e-02   4.18e-01     
     2    -560.01867003   9.91e-03   8.34e-02     
     3    -560.02211348   3.44e-03   2.95e-02     
     4    -560.02456088   2.45e-03   1.92e-02     Switched to DIIS steps.
     5    -560.02472375   1.63e-04   2.73e-03     
     6    -560.02475793   3.42e-05   1.27e-03     
     7    -560.02476093   3.00e-06   2.81e-04     
     8    -560.02476130   3.78e-07   1.04e-04     
     9    -560.02476128   2.52e-08   5.82e-05     
 ------------------------------------------------------------------------------
          -560.02476128                           CCSD T converged.

End of double precision

WARNING: YOUR (T) CALCULATION MAY RUN OUT OF MEMORY
REDUCE CC_MEMORY OR USE CC_BACKEND=XM IF THIS HAPPENS

----------------------------------------
libpt (c) 2016-2019 Ilya Kaliman
Fast Coupled Cluster Triples Corrections
https://github.com/ilyak/libpt
----------------------------------------

 Starting (T) calculation...
 Using double precision libpt code
 Running restricted (T) code
 Using 1 integral batch

 (T) calculation completed in 0.06 sec
 (T) energy is -0.0029136286

 SCF energy                 = -559.80567190
 MP2 energy                 = -559.97739452
 CCSD correlation energy    =   -0.21908938
 CCSD total energy          = -560.02476128
 CCSD(T) correlation energy =   -0.00291363
 CCSD(T) total energy       = -560.02767491

 CCSD  T1^2 = 0.0035  T2^2 = 0.1337  Leading amplitudes:

 Amplitude    Orbitals with energies
 -0.0207       19 (A) A                  ->    24 (A) A                   
              -0.3449                          0.5615                     
 -0.0207       19 (A) B                  ->    24 (A) B                   
              -0.3449                          0.5615                     
 -0.0132       17 (A) A                  ->    22 (A) A                   
              -0.4035                          0.4385                     
 -0.0132       17 (A) B                  ->    22 (A) B                   
              -0.4035                          0.4385                     

 Amplitude    Orbitals with energies
 -0.0410       17 (A) A      17 (A) B    ->    21 (A) A      21 (A) B     
              -0.4035       -0.4035            0.3837        0.3837       
  0.0410       17 (A) A      17 (A) B    ->    21 (A) B      21 (A) A     
              -0.4035       -0.4035            0.3837        0.3837       
  0.0410       17 (A) B      17 (A) A    ->    21 (A) A      21 (A) B     
              -0.4035       -0.4035            0.3837        0.3837       
 -0.0410       17 (A) B      17 (A) A    ->    21 (A) B      21 (A) A     
              -0.4035       -0.4035            0.3837        0.3837       

 CCSD calculation:   CPU 0.39 s  wall 0.74 s

 Total ccman2 time:   CPU 0.70 s  wall 2.04 s


 --------------------------------------------------------------

                    Orbital Energies (a.u.)
 --------------------------------------------------------------

 Alpha MOs
 -- Occupied --
-90.7763 -20.3427 -15.4025 -11.1421  -8.6748  -6.3070  -6.3049  -6.3017
 -1.4754  -0.9950  -0.9450  -0.7882  -0.6849  -0.5583  -0.5321  -0.4689
 -0.4035  -0.3770  -0.3449  -0.2848
 -- Virtual --
  0.3837   0.4385   0.4764   0.5615   0.5917   0.6957   0.7512
 --------------------------------------------------------------

          Ground-State Mulliken Net Atomic Charges

     Atom                 Charge (a.u.)
  ----------------------------------------
      1 C                     0.009020
      2 N                    -0.218544
      3 O                    -0.169453
      4 S                     0.160074
      5 H                     0.076703
      6 H                     0.163483
      7 H                    -0.021285
  ----------------------------------------
  Sum of atomic charges =     0.000000

 -----------------------------------------------------------------
                    Cartesian Multipole Moments
 -----------------------------------------------------------------
    Charge (ESU x 10^10)
                -0.0000
    Dipole Moment (Debye)
         X      -1.8699      Y       1.2566      Z      -1.0399
       Tot       2.4813
    Quadrupole Moments (Debye-Ang)
        XX     -12.3078     XY      -9.3521     YY     -23.1880
        XZ       4.7478     YZ      -1.0657     ZZ     -26.4046
    Octopole Moments (Debye-Ang^2)
       XXX     230.3369    XXY     -16.3091    XYY      79.2185
       YYY    -206.5642    XXZ     -36.6082    XYZ       2.4939
       YYZ     -15.7095    XZZ     100.5936    YZZ     -66.5355
       ZZZ     -38.0358
    Hexadecapole Moments (Debye-Ang^3)
      XXXX   -2089.2567   XXXY     530.2652   XXYY    -484.0115
      XYYY     757.5706   YYYY   -1282.3409   XXXZ     263.5506
      XXYZ     -57.3065   XYYZ      47.4813   YYYZ    -165.1857
      XXZZ    -423.3844   XYZZ     246.4673   YYZZ    -223.3366
      XZZZ     134.7706   YZZZ    -142.3841   ZZZZ    -171.3338
 -----------------------------------------------------------------
Archival summary:
1\1\osmium\SP\ProcedureUnspecified\STO-3G\11113\eric\WedApr2109:16:172021WedApr2109:16:172021\0\\#,ProcedureUnspecified,STO-3G,\\0,1\S\H,1,1.40782\C,1,1.81472,2,92.6001\H,3,1.11151,1,125.096,2,90.0584,0\O,3,1.357,1,111.479,2,-124.662,0\N,5,1.38524,3,63.5267,1,104.044,0\H,6,1.04532,5,105.688,3,102.636,0\\HF=-559.805672\\@

 Total job time:  2.72s(wall), 1.35s(cpu) 
 Wed Apr 21 09:16:17 2021

        *************************************************************
        *                                                           *
        *  Thank you very much for using Q-Chem.  Have a nice day.  *
        *                                                           *
        *************************************************************


